+ 0.11016 2 3 tcp 40 ------- 1 0.0 4.0 0 0
- 0.11016 2 3 tcp 40 ------- 1 0.0 4.0 0 0
r 0.311227 2 3 tcp 40 ------- 1 0.0 4.0 0 0
+ 0.616101 2 3 tcp 592 ------- 1 0.0 4.0 1 2
- 0.616101 2 3 tcp 592 ------- 1 0.0 4.0 1 2
+ 0.618469 2 3 tcp 592 ------- 1 0.0 4.0 2 3
- 0.631888 2 3 tcp 592 ------- 1 0.0 4.0 2 3
r 0.831888 2 3 tcp 592 ------- 1 0.0 4.0 1 2
r 0.847675 2 3 tcp 592 ------- 1 0.0 4.0 2 3
+ 1.145595 2 3 tcp 592 ------- 1 0.0 4.0 3 6
- 1.145595 2 3 tcp 592 ------- 1 0.0 4.0 3 6
+ 1.147963 2 3 tcp 592 ------- 1 0.0 4.0 4 7
- 1.161381 2 3 tcp 592 ------- 1 0.0 4.0 4 7
+ 1.161381 2 3 tcp 592 ------- 1 0.0 4.0 5 8
+ 1.163749 2 3 tcp 592 ------- 1 0.0 4.0 6 9
- 1.177168 2 3 tcp 592 ------- 1 0.0 4.0 5 8
- 1.192955 2 3 tcp 592 ------- 1 0.0 4.0 6 9
r 1.361381 2 3 tcp 592 ------- 1 0.0 4.0 3 6
r 1.377168 2 3 tcp 592 ------- 1 0.0 4.0 4 7
r 1.392955 2 3 tcp 592 ------- 1 0.0 4.0 5 8
r 1.408741 2 3 tcp 592 ------- 1 0.0 4.0 6 9
+ 1.675088 2 3 tcp 592 ------- 1 0.0 4.0 7 14
- 1.675088 2 3 tcp 592 ------- 1 0.0 4.0 7 14
+ 1.677456 2 3 tcp 592 ------- 1 0.0 4.0 8 15
- 1.690875 2 3 tcp 592 ------- 1 0.0 4.0 8 15
+ 1.690875 2 3 tcp 592 ------- 1 0.0 4.0 9 16
+ 1.693243 2 3 tcp 592 ------- 1 0.0 4.0 10 17
- 1.706661 2 3 tcp 592 ------- 1 0.0 4.0 9 16
+ 1.706661 2 3 tcp 592 ------- 1 0.0 4.0 11 18
+ 1.709029 2 3 tcp 592 ------- 1 0.0 4.0 12 19
- 1.722448 2 3 tcp 592 ------- 1 0.0 4.0 10 17
+ 1.722448 2 3 tcp 592 ------- 1 0.0 4.0 13 20
+ 1.724816 2 3 tcp 592 ------- 1 0.0 4.0 14 21
- 1.738235 2 3 tcp 592 ------- 1 0.0 4.0 11 18
- 1.754021 2 3 tcp 592 ------- 1 0.0 4.0 12 19
- 1.769808 2 3 tcp 592 ------- 1 0.0 4.0 13 20
- 1.785595 2 3 tcp 592 ------- 1 0.0 4.0 14 21
r 1.890875 2 3 tcp 592 ------- 1 0.0 4.0 7 14
r 1.906661 2 3 tcp 592 ------- 1 0.0 4.0 8 15
r 1.922448 2 3 tcp 592 ------- 1 0.0 4.0 9 16
r 1.938235 2 3 tcp 592 ------- 1 0.0 4.0 10 17
r 1.954021 2 3 tcp 592 ------- 1 0.0 4.0 11 18
r 1.969808 2 3 tcp 592 ------- 1 0.0 4.0 12 19
r 1.985595 2 3 tcp 592 ------- 1 0.0 4.0 13 20
r 2.001381 2 3 tcp 592 ------- 1 0.0 4.0 14 21
+ 2.204581 2 3 tcp 592 ------- 1 0.0 4.0 15 30
- 2.204581 2 3 tcp 592 ------- 1 0.0 4.0 15 30
+ 2.206949 2 3 tcp 592 ------- 1 0.0 4.0 16 31
- 2.220368 2 3 tcp 592 ------- 1 0.0 4.0 16 31
+ 2.220368 2 3 tcp 592 ------- 1 0.0 4.0 17 32
+ 2.222736 2 3 tcp 592 ------- 1 0.0 4.0 18 33
- 2.236155 2 3 tcp 592 ------- 1 0.0 4.0 17 32
+ 2.236155 2 3 tcp 592 ------- 1 0.0 4.0 19 34
+ 2.238523 2 3 tcp 592 ------- 1 0.0 4.0 20 35
- 2.251941 2 3 tcp 592 ------- 1 0.0 4.0 18 33
+ 2.251941 2 3 tcp 592 ------- 1 0.0 4.0 21 36
+ 2.254309 2 3 tcp 592 ------- 1 0.0 4.0 22 37
- 2.267728 2 3 tcp 592 ------- 1 0.0 4.0 19 34
+ 2.267728 2 3 tcp 592 ------- 1 0.0 4.0 23 38
+ 2.270096 2 3 tcp 592 ------- 1 0.0 4.0 24 39
- 2.283515 2 3 tcp 592 ------- 1 0.0 4.0 20 35
+ 2.283515 2 3 tcp 592 ------- 1 0.0 4.0 25 40
+ 2.285883 2 3 tcp 592 ------- 1 0.0 4.0 26 41
- 2.299301 2 3 tcp 592 ------- 1 0.0 4.0 21 36
+ 2.299301 2 3 tcp 592 ------- 1 0.0 4.0 27 42
+ 2.301669 2 3 tcp 592 ------- 1 0.0 4.0 28 43
- 2.315088 2 3 tcp 592 ------- 1 0.0 4.0 22 37
+ 2.315088 2 3 tcp 592 ------- 1 0.0 4.0 29 44
+ 2.317456 2 3 tcp 592 ------- 1 0.0 4.0 30 45
- 2.330875 2 3 tcp 592 ------- 1 0.0 4.0 23 38
- 2.346661 2 3 tcp 592 ------- 1 0.0 4.0 24 39
- 2.362448 2 3 tcp 592 ------- 1 0.0 4.0 25 40
- 2.378235 2 3 tcp 592 ------- 1 0.0 4.0 26 41
- 2.394021 2 3 tcp 592 ------- 1 0.0 4.0 27 42
- 2.409808 2 3 tcp 592 ------- 1 0.0 4.0 28 43
r 2.420368 2 3 tcp 592 ------- 1 0.0 4.0 15 30
- 2.425595 2 3 tcp 592 ------- 1 0.0 4.0 29 44
r 2.436155 2 3 tcp 592 ------- 1 0.0 4.0 16 31
- 2.441381 2 3 tcp 592 ------- 1 0.0 4.0 30 45
r 2.451941 2 3 tcp 592 ------- 1 0.0 4.0 17 32
r 2.467728 2 3 tcp 592 ------- 1 0.0 4.0 18 33
r 2.483515 2 3 tcp 592 ------- 1 0.0 4.0 19 34
r 2.499301 2 3 tcp 592 ------- 1 0.0 4.0 20 35
r 2.515088 2 3 tcp 592 ------- 1 0.0 4.0 21 36
r 2.530875 2 3 tcp 592 ------- 1 0.0 4.0 22 37
r 2.546661 2 3 tcp 592 ------- 1 0.0 4.0 23 38
r 2.562448 2 3 tcp 592 ------- 1 0.0 4.0 24 39
r 2.578235 2 3 tcp 592 ------- 1 0.0 4.0 25 40
r 2.594021 2 3 tcp 592 ------- 1 0.0 4.0 26 41
r 2.609808 2 3 tcp 592 ------- 1 0.0 4.0 27 42
r 2.625595 2 3 tcp 592 ------- 1 0.0 4.0 28 43
r 2.641381 2 3 tcp 592 ------- 1 0.0 4.0 29 44
r 2.657168 2 3 tcp 592 ------- 1 0.0 4.0 30 45
+ 2.734075 2 3 tcp 592 ------- 1 0.0 4.0 31 62
- 2.734075 2 3 tcp 592 ------- 1 0.0 4.0 31 62
+ 2.736443 2 3 tcp 592 ------- 1 0.0 4.0 32 63
- 2.749861 2 3 tcp 592 ------- 1 0.0 4.0 32 63
+ 2.749861 2 3 tcp 592 ------- 1 0.0 4.0 33 64
+ 2.752229 2 3 tcp 592 ------- 1 0.0 4.0 34 65
- 2.765648 2 3 tcp 592 ------- 1 0.0 4.0 33 64
+ 2.765648 2 3 tcp 592 ------- 1 0.0 4.0 35 66
+ 2.768016 2 3 tcp 592 ------- 1 0.0 4.0 36 67
- 2.781435 2 3 tcp 592 ------- 1 0.0 4.0 34 65
+ 2.781435 2 3 tcp 592 ------- 1 0.0 4.0 37 68
+ 2.783803 2 3 tcp 592 ------- 1 0.0 4.0 38 69
- 2.797221 2 3 tcp 592 ------- 1 0.0 4.0 35 66
+ 2.797221 2 3 tcp 592 ------- 1 0.0 4.0 39 70
+ 2.799589 2 3 tcp 592 ------- 1 0.0 4.0 40 71
- 2.813008 2 3 tcp 592 ------- 1 0.0 4.0 36 67
+ 2.813008 2 3 tcp 592 ------- 1 0.0 4.0 41 72
+ 2.815376 2 3 tcp 592 ------- 1 0.0 4.0 42 73
- 2.828795 2 3 tcp 592 ------- 1 0.0 4.0 37 68
+ 2.828795 2 3 tcp 592 ------- 1 0.0 4.0 43 74
+ 2.831163 2 3 tcp 592 ------- 1 0.0 4.0 44 75
- 2.844581 2 3 tcp 592 ------- 1 0.0 4.0 38 69
+ 2.844581 2 3 tcp 592 ------- 1 0.0 4.0 45 76
+ 2.846949 2 3 tcp 592 ------- 1 0.0 4.0 46 77
- 2.860368 2 3 tcp 592 ------- 1 0.0 4.0 39 70
+ 2.860368 2 3 tcp 592 ------- 1 0.0 4.0 47 78
+ 2.862736 2 3 tcp 592 ------- 1 0.0 4.0 48 79
- 2.876155 2 3 tcp 592 ------- 1 0.0 4.0 40 71
+ 2.876155 2 3 tcp 592 ------- 1 0.0 4.0 49 80
+ 2.878523 2 3 tcp 592 ------- 1 0.0 4.0 50 81
d 2.878523 2 3 tcp 592 ------- 1 0.0 4.0 50 81
- 2.891941 2 3 tcp 592 ------- 1 0.0 4.0 41 72
+ 2.891941 2 3 tcp 592 ------- 1 0.0 4.0 51 82
+ 2.894309 2 3 tcp 592 ------- 1 0.0 4.0 52 83
d 2.894309 2 3 tcp 592 ------- 1 0.0 4.0 52 83
- 2.907728 2 3 tcp 592 ------- 1 0.0 4.0 42 73
+ 2.907728 2 3 tcp 592 ------- 1 0.0 4.0 53 84
+ 2.910096 2 3 tcp 592 ------- 1 0.0 4.0 54 85
d 2.910096 2 3 tcp 592 ------- 1 0.0 4.0 54 85
- 2.923515 2 3 tcp 592 ------- 1 0.0 4.0 43 74
+ 2.923515 2 3 tcp 592 ------- 1 0.0 4.0 55 86
+ 2.925883 2 3 tcp 592 ------- 1 0.0 4.0 56 87
d 2.925883 2 3 tcp 592 ------- 1 0.0 4.0 56 87
- 2.939301 2 3 tcp 592 ------- 1 0.0 4.0 44 75
+ 2.939301 2 3 tcp 592 ------- 1 0.0 4.0 57 88
+ 2.941669 2 3 tcp 592 ------- 1 0.0 4.0 58 89
d 2.941669 2 3 tcp 592 ------- 1 0.0 4.0 58 89
r 2.949861 2 3 tcp 592 ------- 1 0.0 4.0 31 62
- 2.955088 2 3 tcp 592 ------- 1 0.0 4.0 45 76
+ 2.955088 2 3 tcp 592 ------- 1 0.0 4.0 59 90
+ 2.957456 2 3 tcp 592 ------- 1 0.0 4.0 60 91
d 2.957456 2 3 tcp 592 ------- 1 0.0 4.0 60 91
r 2.965648 2 3 tcp 592 ------- 1 0.0 4.0 32 63
- 2.970875 2 3 tcp 592 ------- 1 0.0 4.0 46 77
+ 2.970875 2 3 tcp 592 ------- 1 0.0 4.0 61 92
+ 2.973243 2 3 tcp 592 ------- 1 0.0 4.0 62 93
d 2.973243 2 3 tcp 592 ------- 1 0.0 4.0 62 93
r 2.981435 2 3 tcp 592 ------- 1 0.0 4.0 33 64
- 2.986661 2 3 tcp 592 ------- 1 0.0 4.0 47 78
r 2.997221 2 3 tcp 592 ------- 1 0.0 4.0 34 65
- 3.002448 2 3 tcp 592 ------- 1 0.0 4.0 48 79
r 3.013008 2 3 tcp 592 ------- 1 0.0 4.0 35 66
- 3.018235 2 3 tcp 592 ------- 1 0.0 4.0 49 80
r 3.028795 2 3 tcp 592 ------- 1 0.0 4.0 36 67
- 3.034021 2 3 tcp 592 ------- 1 0.0 4.0 51 82
r 3.044581 2 3 tcp 592 ------- 1 0.0 4.0 37 68
- 3.049808 2 3 tcp 592 ------- 1 0.0 4.0 53 84
r 3.060368 2 3 tcp 592 ------- 1 0.0 4.0 38 69
- 3.065595 2 3 tcp 592 ------- 1 0.0 4.0 55 86
r 3.076155 2 3 tcp 592 ------- 1 0.0 4.0 39 70
- 3.081381 2 3 tcp 592 ------- 1 0.0 4.0 57 88
r 3.091941 2 3 tcp 592 ------- 1 0.0 4.0 40 71
- 3.097168 2 3 tcp 592 ------- 1 0.0 4.0 59 90
r 3.107728 2 3 tcp 592 ------- 1 0.0 4.0 41 72
- 3.112955 2 3 tcp 592 ------- 1 0.0 4.0 61 92
r 3.123515 2 3 tcp 592 ------- 1 0.0 4.0 42 73
r 3.139301 2 3 tcp 592 ------- 1 0.0 4.0 43 74
r 3.155088 2 3 tcp 592 ------- 1 0.0 4.0 44 75
r 3.170875 2 3 tcp 592 ------- 1 0.0 4.0 45 76
r 3.186661 2 3 tcp 592 ------- 1 0.0 4.0 46 77
r 3.202448 2 3 tcp 592 ------- 1 0.0 4.0 47 78
r 3.218235 2 3 tcp 592 ------- 1 0.0 4.0 48 79
r 3.234021 2 3 tcp 592 ------- 1 0.0 4.0 49 80
r 3.249808 2 3 tcp 592 ------- 1 0.0 4.0 51 82
+ 3.263568 2 3 tcp 592 ------- 1 0.0 4.0 63 110
- 3.263568 2 3 tcp 592 ------- 1 0.0 4.0 63 110
r 3.265595 2 3 tcp 592 ------- 1 0.0 4.0 53 84
+ 3.265936 2 3 tcp 592 ------- 1 0.0 4.0 64 111
- 3.279355 2 3 tcp 592 ------- 1 0.0 4.0 64 111
+ 3.279355 2 3 tcp 592 ------- 1 0.0 4.0 65 113
r 3.281381 2 3 tcp 592 ------- 1 0.0 4.0 55 86
+ 3.281723 2 3 tcp 592 ------- 1 0.0 4.0 66 114
- 3.295141 2 3 tcp 592 ------- 1 0.0 4.0 65 113
+ 3.295141 2 3 tcp 592 ------- 1 0.0 4.0 67 116
r 3.297168 2 3 tcp 592 ------- 1 0.0 4.0 57 88
+ 3.297509 2 3 tcp 592 ------- 1 0.0 4.0 68 117
- 3.310928 2 3 tcp 592 ------- 1 0.0 4.0 66 114
+ 3.310928 2 3 tcp 592 ------- 1 0.0 4.0 69 119
r 3.312955 2 3 tcp 592 ------- 1 0.0 4.0 59 90
+ 3.313296 2 3 tcp 592 ------- 1 0.0 4.0 70 120
- 3.326715 2 3 tcp 592 ------- 1 0.0 4.0 67 116
+ 3.326715 2 3 tcp 592 ------- 1 0.0 4.0 71 122
r 3.328741 2 3 tcp 592 ------- 1 0.0 4.0 61 92
+ 3.329083 2 3 tcp 592 ------- 1 0.0 4.0 72 123
- 3.342501 2 3 tcp 592 ------- 1 0.0 4.0 68 117
+ 3.342501 2 3 tcp 592 ------- 1 0.0 4.0 73 125
+ 3.344869 2 3 tcp 592 ------- 1 0.0 4.0 74 126
- 3.358288 2 3 tcp 592 ------- 1 0.0 4.0 69 119
+ 3.358288 2 3 tcp 592 ------- 1 0.0 4.0 75 128
+ 3.360656 2 3 tcp 592 ------- 1 0.0 4.0 76 129
- 3.374075 2 3 tcp 592 ------- 1 0.0 4.0 70 120
+ 3.374075 2 3 tcp 592 ------- 1 0.0 4.0 77 131
+ 3.376443 2 3 tcp 592 ------- 1 0.0 4.0 78 132
- 3.389861 2 3 tcp 592 ------- 1 0.0 4.0 71 122
+ 3.389861 2 3 tcp 592 ------- 1 0.0 4.0 79 134
+ 3.392229 2 3 tcp 592 ------- 1 0.0 4.0 80 135
- 3.405648 2 3 tcp 592 ------- 1 0.0 4.0 72 123
+ 3.405648 2 3 tcp 592 ------- 1 0.0 4.0 81 137
+ 3.408016 2 3 tcp 592 ------- 1 0.0 4.0 82 138
d 3.408016 2 3 tcp 592 ------- 1 0.0 4.0 82 138
- 3.421435 2 3 tcp 592 ------- 1 0.0 4.0 73 125
+ 3.421435 2 3 tcp 592 ------- 1 0.0 4.0 83 139
+ 3.423803 2 3 tcp 592 ------- 1 0.0 4.0 84 140
d 3.423803 2 3 tcp 592 ------- 1 0.0 4.0 84 140
- 3.437221 2 3 tcp 592 ------- 1 0.0 4.0 74 126
+ 3.437221 2 3 tcp 592 ------- 1 0.0 4.0 85 141
+ 3.439589 2 3 tcp 592 ------- 1 0.0 4.0 86 142
d 3.439589 2 3 tcp 592 ------- 1 0.0 4.0 86 142
- 3.453008 2 3 tcp 592 ------- 1 0.0 4.0 75 128
+ 3.453008 2 3 tcp 592 ------- 1 0.0 4.0 87 143
+ 3.455376 2 3 tcp 592 ------- 1 0.0 4.0 88 144
d 3.455376 2 3 tcp 592 ------- 1 0.0 4.0 88 144
- 3.468795 2 3 tcp 592 ------- 1 0.0 4.0 76 129
+ 3.468795 2 3 tcp 592 ------- 1 0.0 4.0 89 145
+ 3.471163 2 3 tcp 592 ------- 1 0.0 4.0 90 146
d 3.471163 2 3 tcp 592 ------- 1 0.0 4.0 90 146
r 3.479355 2 3 tcp 592 ------- 1 0.0 4.0 63 110
- 3.484581 2 3 tcp 592 ------- 1 0.0 4.0 77 131
+ 3.484581 2 3 tcp 592 ------- 1 0.0 4.0 91 147
+ 3.486949 2 3 tcp 592 ------- 1 0.0 4.0 92 148
d 3.486949 2 3 tcp 592 ------- 1 0.0 4.0 92 148
r 3.495141 2 3 tcp 592 ------- 1 0.0 4.0 64 111
- 3.500368 2 3 tcp 592 ------- 1 0.0 4.0 78 132
+ 3.500368 2 3 tcp 592 ------- 1 0.0 4.0 93 149
+ 3.502736 2 3 tcp 592 ------- 1 0.0 4.0 94 150
d 3.502736 2 3 tcp 592 ------- 1 0.0 4.0 94 150
r 3.510928 2 3 tcp 592 ------- 1 0.0 4.0 65 113
- 3.516155 2 3 tcp 592 ------- 1 0.0 4.0 79 134
+ 3.516155 2 3 tcp 592 ------- 1 0.0 4.0 95 151
+ 3.518523 2 3 tcp 592 ------- 1 0.0 4.0 96 152
d 3.518523 2 3 tcp 592 ------- 1 0.0 4.0 96 152
r 3.526715 2 3 tcp 592 ------- 1 0.0 4.0 66 114
- 3.531941 2 3 tcp 592 ------- 1 0.0 4.0 80 135
+ 3.531941 2 3 tcp 592 ------- 1 0.0 4.0 97 153
+ 3.534309 2 3 tcp 592 ------- 1 0.0 4.0 98 154
d 3.534309 2 3 tcp 592 ------- 1 0.0 4.0 98 154
r 3.542501 2 3 tcp 592 ------- 1 0.0 4.0 67 116
- 3.547728 2 3 tcp 592 ------- 1 0.0 4.0 81 137
+ 3.547728 2 3 tcp 592 ------- 1 0.0 4.0 99 156
+ 3.550096 2 3 tcp 592 ------- 1 0.0 4.0 100 157
d 3.550096 2 3 tcp 592 ------- 1 0.0 4.0 100 157
r 3.558288 2 3 tcp 592 ------- 1 0.0 4.0 68 117
- 3.563515 2 3 tcp 592 ------- 1 0.0 4.0 83 139
+ 3.563515 2 3 tcp 592 ------- 1 0.0 4.0 101 159
r 3.574075 2 3 tcp 592 ------- 1 0.0 4.0 69 119
- 3.579301 2 3 tcp 592 ------- 1 0.0 4.0 85 141
+ 3.579301 2 3 tcp 592 ------- 1 0.0 4.0 102 161
r 3.589861 2 3 tcp 592 ------- 1 0.0 4.0 70 120
- 3.595088 2 3 tcp 592 ------- 1 0.0 4.0 87 143
+ 3.595088 2 3 tcp 592 ---A--- 1 0.0 4.0 50 163
r 3.605648 2 3 tcp 592 ------- 1 0.0 4.0 71 122
- 3.610875 2 3 tcp 592 ------- 1 0.0 4.0 89 145
r 3.621435 2 3 tcp 592 ------- 1 0.0 4.0 72 123
- 3.626661 2 3 tcp 592 ------- 1 0.0 4.0 91 147
r 3.637221 2 3 tcp 592 ------- 1 0.0 4.0 73 125
- 3.642448 2 3 tcp 592 ------- 1 0.0 4.0 93 149
r 3.653008 2 3 tcp 592 ------- 1 0.0 4.0 74 126
- 3.658235 2 3 tcp 592 ------- 1 0.0 4.0 95 151
r 3.668795 2 3 tcp 592 ------- 1 0.0 4.0 75 128
- 3.674021 2 3 tcp 592 ------- 1 0.0 4.0 97 153
r 3.684581 2 3 tcp 592 ------- 1 0.0 4.0 76 129
- 3.689808 2 3 tcp 592 ------- 1 0.0 4.0 99 156
r 3.700368 2 3 tcp 592 ------- 1 0.0 4.0 77 131
- 3.705595 2 3 tcp 592 ------- 1 0.0 4.0 101 159
r 3.716155 2 3 tcp 592 ------- 1 0.0 4.0 78 132
- 3.721381 2 3 tcp 592 ------- 1 0.0 4.0 102 161
r 3.731941 2 3 tcp 592 ------- 1 0.0 4.0 79 134
- 3.737168 2 3 tcp 592 ---A--- 1 0.0 4.0 50 163
r 3.747728 2 3 tcp 592 ------- 1 0.0 4.0 80 135
r 3.763515 2 3 tcp 592 ------- 1 0.0 4.0 81 137
r 3.779301 2 3 tcp 592 ------- 1 0.0 4.0 83 139
r 3.795088 2 3 tcp 592 ------- 1 0.0 4.0 85 141
r 3.810875 2 3 tcp 592 ------- 1 0.0 4.0 87 143
r 3.826661 2 3 tcp 592 ------- 1 0.0 4.0 89 145
r 3.842448 2 3 tcp 592 ------- 1 0.0 4.0 91 147
r 3.858235 2 3 tcp 592 ------- 1 0.0 4.0 93 149
r 3.874021 2 3 tcp 592 ------- 1 0.0 4.0 95 151
r 3.889808 2 3 tcp 592 ------- 1 0.0 4.0 97 153
r 3.905595 2 3 tcp 592 ------- 1 0.0 4.0 99 156
r 3.921381 2 3 tcp 592 ------- 1 0.0 4.0 101 159
r 3.937168 2 3 tcp 592 ------- 1 0.0 4.0 102 161
r 3.952955 2 3 tcp 592 ---A--- 1 0.0 4.0 50 163
+ 4.140368 2 3 tcp 592 ------- 1 0.0 4.0 103 191
- 4.140368 2 3 tcp 592 ------- 1 0.0 4.0 103 191
+ 4.156155 2 3 tcp 592 ------- 1 0.0 4.0 104 192
- 4.156155 2 3 tcp 592 ------- 1 0.0 4.0 104 192
+ 4.171941 2 3 tcp 592 ------- 1 0.0 4.0 105 193
- 4.171941 2 3 tcp 592 ------- 1 0.0 4.0 105 193
+ 4.187728 2 3 tcp 592 ------- 1 0.0 4.0 106 194
- 4.187728 2 3 tcp 592 ------- 1 0.0 4.0 106 194
+ 4.203515 2 3 tcp 592 ------- 1 0.0 4.0 107 195
- 4.203515 2 3 tcp 592 ------- 1 0.0 4.0 107 195
+ 4.219301 2 3 tcp 592 ------- 1 0.0 4.0 108 196
- 4.219301 2 3 tcp 592 ------- 1 0.0 4.0 108 196
+ 4.235088 2 3 tcp 592 ------- 1 0.0 4.0 109 197
- 4.235088 2 3 tcp 592 ------- 1 0.0 4.0 109 197
+ 4.250875 2 3 tcp 592 ------- 1 0.0 4.0 110 198
- 4.250875 2 3 tcp 592 ------- 1 0.0 4.0 110 198
r 4.356155 2 3 tcp 592 ------- 1 0.0 4.0 103 191
r 4.371941 2 3 tcp 592 ------- 1 0.0 4.0 104 192
r 4.387728 2 3 tcp 592 ------- 1 0.0 4.0 105 193
r 4.403515 2 3 tcp 592 ------- 1 0.0 4.0 106 194
r 4.419301 2 3 tcp 592 ------- 1 0.0 4.0 107 195
r 4.435088 2 3 tcp 592 ------- 1 0.0 4.0 108 196
r 4.450875 2 3 tcp 592 ------- 1 0.0 4.0 109 197
r 4.466661 2 3 tcp 592 ------- 1 0.0 4.0 110 198
+ 5.096661 2 3 tcp 592 ---A--- 1 0.0 4.0 52 207
- 5.096661 2 3 tcp 592 ---A--- 1 0.0 4.0 52 207
r 5.312448 2 3 tcp 592 ---A--- 1 0.0 4.0 52 207
+ 5.626155 2 3 tcp 592 ------- 1 0.0 4.0 54 209
- 5.626155 2 3 tcp 592 ------- 1 0.0 4.0 54 209
+ 5.628523 2 3 tcp 592 ------- 1 0.0 4.0 55 210
- 5.641941 2 3 tcp 592 ------- 1 0.0 4.0 55 210
r 5.841941 2 3 tcp 592 ------- 1 0.0 4.0 54 209
r 5.857728 2 3 tcp 592 ------- 1 0.0 4.0 55 210
+ 6.155648 2 3 tcp 592 ------- 1 0.0 4.0 56 213
- 6.155648 2 3 tcp 592 ------- 1 0.0 4.0 56 213
+ 6.158016 2 3 tcp 592 ------- 1 0.0 4.0 57 214
+ 6.160384 2 3 tcp 592 ------- 1 0.0 4.0 58 215
- 6.171435 2 3 tcp 592 ------- 1 0.0 4.0 57 214
+ 6.171435 2 3 tcp 592 ------- 1 0.0 4.0 59 216
- 6.187221 2 3 tcp 592 ------- 1 0.0 4.0 58 215
- 6.203008 2 3 tcp 592 ------- 1 0.0 4.0 59 216
r 6.371435 2 3 tcp 592 ------- 1 0.0 4.0 56 213
r 6.387221 2 3 tcp 592 ------- 1 0.0 4.0 57 214
r 6.403008 2 3 tcp 592 ------- 1 0.0 4.0 58 215
r 6.418795 2 3 tcp 592 ------- 1 0.0 4.0 59 216
+ 6.685141 2 3 tcp 592 ------- 1 0.0 4.0 60 221
- 6.685141 2 3 tcp 592 ------- 1 0.0 4.0 60 221
+ 6.687509 2 3 tcp 592 ------- 1 0.0 4.0 61 222
- 6.700928 2 3 tcp 592 ------- 1 0.0 4.0 61 222
+ 6.700928 2 3 tcp 592 ------- 1 0.0 4.0 62 223
- 6.716715 2 3 tcp 592 ------- 1 0.0 4.0 62 223
+ 6.716715 2 3 tcp 592 ------- 1 0.0 4.0 63 224
+ 6.719083 2 3 tcp 592 ------- 1 0.0 4.0 64 225
- 6.732501 2 3 tcp 592 ------- 1 0.0 4.0 63 224
+ 6.732501 2 3 tcp 592 ------- 1 0.0 4.0 65 226
- 6.748288 2 3 tcp 592 ------- 1 0.0 4.0 64 225
- 6.764075 2 3 tcp 592 ------- 1 0.0 4.0 65 226
r 6.900928 2 3 tcp 592 ------- 1 0.0 4.0 60 221
r 6.916715 2 3 tcp 592 ------- 1 0.0 4.0 61 222
r 6.932501 2 3 tcp 592 ------- 1 0.0 4.0 62 223
r 6.948288 2 3 tcp 592 ------- 1 0.0 4.0 63 224
r 6.964075 2 3 tcp 592 ------- 1 0.0 4.0 64 225
r 6.979861 2 3 tcp 592 ------- 1 0.0 4.0 65 226
+ 7.214635 2 3 tcp 592 ------- 1 0.0 4.0 66 233
- 7.214635 2 3 tcp 592 ------- 1 0.0 4.0 66 233
+ 7.217003 2 3 tcp 592 ------- 1 0.0 4.0 67 234
- 7.230421 2 3 tcp 592 ------- 1 0.0 4.0 67 234
+ 7.230421 2 3 tcp 592 ------- 1 0.0 4.0 68 235
- 7.246208 2 3 tcp 592 ------- 1 0.0 4.0 68 235
+ 7.246208 2 3 tcp 592 ------- 1 0.0 4.0 82 236
+ 7.248576 2 3 tcp 592 ------- 1 0.0 4.0 83 237
+ 7.250944 2 3 tcp 592 ------- 1 0.0 4.0 84 238
+ 7.253312 2 3 tcp 592 ------- 1 0.0 4.0 85 239
+ 7.25568 2 3 tcp 592 ------- 1 0.0 4.0 86 240
+ 7.258048 2 3 tcp 592 ------- 1 0.0 4.0 87 241
+ 7.260416 2 3 tcp 592 ------- 1 0.0 4.0 88 242
- 7.261995 2 3 tcp 592 ------- 1 0.0 4.0 82 236
+ 7.262784 2 3 tcp 592 ------- 1 0.0 4.0 89 243
- 7.277781 2 3 tcp 592 ------- 1 0.0 4.0 83 237
+ 7.277781 2 3 tcp 592 ------- 1 0.0 4.0 90 244
- 7.293568 2 3 tcp 592 ------- 1 0.0 4.0 84 238
- 7.309355 2 3 tcp 592 ------- 1 0.0 4.0 85 239
- 7.325141 2 3 tcp 592 ------- 1 0.0 4.0 86 240
- 7.340928 2 3 tcp 592 ------- 1 0.0 4.0 87 241
- 7.356715 2 3 tcp 592 ------- 1 0.0 4.0 88 242
- 7.372501 2 3 tcp 592 ------- 1 0.0 4.0 89 243
- 7.388288 2 3 tcp 592 ------- 1 0.0 4.0 90 244
r 7.430421 2 3 tcp 592 ------- 1 0.0 4.0 66 233
r 7.446208 2 3 tcp 592 ------- 1 0.0 4.0 67 234
r 7.461995 2 3 tcp 592 ------- 1 0.0 4.0 68 235
r 7.477781 2 3 tcp 592 ------- 1 0.0 4.0 82 236
r 7.493568 2 3 tcp 592 ------- 1 0.0 4.0 83 237
r 7.509355 2 3 tcp 592 ------- 1 0.0 4.0 84 238
r 7.525141 2 3 tcp 592 ------- 1 0.0 4.0 85 239
r 7.540928 2 3 tcp 592 ------- 1 0.0 4.0 86 240
r 7.556715 2 3 tcp 592 ------- 1 0.0 4.0 87 241
r 7.572501 2 3 tcp 592 ------- 1 0.0 4.0 88 242
r 7.588288 2 3 tcp 592 ------- 1 0.0 4.0 89 243
r 7.604075 2 3 tcp 592 ------- 1 0.0 4.0 90 244
+ 7.791488 2 3 tcp 592 ------- 1 0.0 4.0 91 257
- 7.791488 2 3 tcp 592 ------- 1 0.0 4.0 91 257
+ 7.807275 2 3 tcp 592 ------- 1 0.0 4.0 92 258
- 7.807275 2 3 tcp 592 ------- 1 0.0 4.0 92 258
+ 7.823061 2 3 tcp 592 ------- 1 0.0 4.0 93 259
- 7.823061 2 3 tcp 592 ------- 1 0.0 4.0 93 259
+ 7.825429 2 3 tcp 592 ------- 1 0.0 4.0 94 260
- 7.838848 2 3 tcp 592 ------- 1 0.0 4.0 94 260
+ 7.838848 2 3 tcp 592 ------- 1 0.0 4.0 95 261
- 7.854635 2 3 tcp 592 ------- 1 0.0 4.0 95 261
+ 7.854635 2 3 tcp 592 ------- 1 0.0 4.0 96 262
+ 7.857003 2 3 tcp 592 ------- 1 0.0 4.0 97 263
- 7.870421 2 3 tcp 592 ------- 1 0.0 4.0 96 262
+ 7.870421 2 3 tcp 592 ------- 1 0.0 4.0 98 264
- 7.886208 2 3 tcp 592 ------- 1 0.0 4.0 97 263
+ 7.886208 2 3 tcp 592 ------- 1 0.0 4.0 99 265
+ 7.888576 2 3 tcp 592 ------- 1 0.0 4.0 100 266
- 7.901995 2 3 tcp 592 ------- 1 0.0 4.0 98 264
+ 7.901995 2 3 tcp 592 ------- 1 0.0 4.0 101 267
- 7.917781 2 3 tcp 592 ------- 1 0.0 4.0 99 265
+ 7.917781 2 3 tcp 592 ------- 1 0.0 4.0 102 268
+ 7.920149 2 3 tcp 592 ------- 1 0.0 4.0 103 269
- 7.933568 2 3 tcp 592 ------- 1 0.0 4.0 100 266
- 7.949355 2 3 tcp 592 ------- 1 0.0 4.0 101 267
- 7.965141 2 3 tcp 592 ------- 1 0.0 4.0 102 268
- 7.980928 2 3 tcp 592 ------- 1 0.0 4.0 103 269
r 8.007275 2 3 tcp 592 ------- 1 0.0 4.0 91 257
r 8.023061 2 3 tcp 592 ------- 1 0.0 4.0 92 258
r 8.038848 2 3 tcp 592 ------- 1 0.0 4.0 93 259
r 8.054635 2 3 tcp 592 ------- 1 0.0 4.0 94 260
r 8.070421 2 3 tcp 592 ------- 1 0.0 4.0 95 261
r 8.086208 2 3 tcp 592 ------- 1 0.0 4.0 96 262
r 8.101995 2 3 tcp 592 ------- 1 0.0 4.0 97 263
r 8.117781 2 3 tcp 592 ------- 1 0.0 4.0 98 264
r 8.133568 2 3 tcp 592 ------- 1 0.0 4.0 99 265
r 8.149355 2 3 tcp 592 ------- 1 0.0 4.0 100 266
r 8.165141 2 3 tcp 592 ------- 1 0.0 4.0 101 267
r 8.180928 2 3 tcp 592 ------- 1 0.0 4.0 102 268
r 8.196715 2 3 tcp 592 ------- 1 0.0 4.0 103 269
+ 8.320981 2 3 tcp 592 ------- 1 0.0 4.0 104 283
- 8.320981 2 3 tcp 592 ------- 1 0.0 4.0 104 283
+ 8.336768 2 3 tcp 592 ------- 1 0.0 4.0 105 284
- 8.336768 2 3 tcp 592 ------- 1 0.0 4.0 105 284
+ 8.352555 2 3 tcp 592 ------- 1 0.0 4.0 106 285
- 8.352555 2 3 tcp 592 ------- 1 0.0 4.0 106 285
+ 8.368341 2 3 tcp 592 ------- 1 0.0 4.0 107 286
- 8.368341 2 3 tcp 592 ------- 1 0.0 4.0 107 286
+ 8.384128 2 3 tcp 592 ------- 1 0.0 4.0 108 287
- 8.384128 2 3 tcp 592 ------- 1 0.0 4.0 108 287
+ 8.399915 2 3 tcp 592 ------- 1 0.0 4.0 109 288
- 8.399915 2 3 tcp 592 ------- 1 0.0 4.0 109 288
+ 8.415701 2 3 tcp 592 ------- 1 0.0 4.0 110 289
- 8.415701 2 3 tcp 592 ------- 1 0.0 4.0 110 289
+ 8.431488 2 3 tcp 592 ------- 1 0.0 4.0 111 290
- 8.431488 2 3 tcp 592 ------- 1 0.0 4.0 111 290
+ 8.447275 2 3 tcp 592 ------- 1 0.0 4.0 112 291
- 8.447275 2 3 tcp 592 ------- 1 0.0 4.0 112 291
+ 8.463061 2 3 tcp 592 ------- 1 0.0 4.0 113 292
- 8.463061 2 3 tcp 592 ------- 1 0.0 4.0 113 292
+ 8.465429 2 3 tcp 592 ------- 1 0.0 4.0 114 293
+ 8.467797 2 3 tcp 592 ------- 1 0.0 4.0 115 294
+ 8.470165 2 3 tcp 592 ------- 1 0.0 4.0 116 295
+ 8.472533 2 3 tcp 592 ------- 1 0.0 4.0 117 296
+ 8.474901 2 3 tcp 592 ------- 1 0.0 4.0 118 297
+ 8.477269 2 3 tcp 592 ------- 1 0.0 4.0 119 298
- 8.478848 2 3 tcp 592 ------- 1 0.0 4.0 114 293
+ 8.479637 2 3 tcp 592 ------- 1 0.0 4.0 120 299
+ 8.482005 2 3 tcp 592 ------- 1 0.0 4.0 121 300
+ 8.484373 2 3 tcp 592 ------- 1 0.0 4.0 122 301
+ 8.486741 2 3 tcp 592 ------- 1 0.0 4.0 123 302
- 8.494635 2 3 tcp 592 ------- 1 0.0 4.0 115 294
+ 8.494635 2 3 tcp 592 ------- 1 0.0 4.0 124 303
- 8.510421 2 3 tcp 592 ------- 1 0.0 4.0 116 295
- 8.526208 2 3 tcp 592 ------- 1 0.0 4.0 117 296
r 8.536768 2 3 tcp 592 ------- 1 0.0 4.0 104 283
- 8.541995 2 3 tcp 592 ------- 1 0.0 4.0 118 297
r 8.552555 2 3 tcp 592 ------- 1 0.0 4.0 105 284
- 8.557781 2 3 tcp 592 ------- 1 0.0 4.0 119 298
r 8.568341 2 3 tcp 592 ------- 1 0.0 4.0 106 285
- 8.573568 2 3 tcp 592 ------- 1 0.0 4.0 120 299
r 8.584128 2 3 tcp 592 ------- 1 0.0 4.0 107 286
- 8.589355 2 3 tcp 592 ------- 1 0.0 4.0 121 300
r 8.599915 2 3 tcp 592 ------- 1 0.0 4.0 108 287
- 8.605141 2 3 tcp 592 ------- 1 0.0 4.0 122 301
r 8.615701 2 3 tcp 592 ------- 1 0.0 4.0 109 288
- 8.620928 2 3 tcp 592 ------- 1 0.0 4.0 123 302
r 8.631488 2 3 tcp 592 ------- 1 0.0 4.0 110 289
- 8.636715 2 3 tcp 592 ------- 1 0.0 4.0 124 303
r 8.647275 2 3 tcp 592 ------- 1 0.0 4.0 111 290
r 8.663061 2 3 tcp 592 ------- 1 0.0 4.0 112 291
r 8.678848 2 3 tcp 592 ------- 1 0.0 4.0 113 292
r 8.694635 2 3 tcp 592 ------- 1 0.0 4.0 114 293
r 8.710421 2 3 tcp 592 ------- 1 0.0 4.0 115 294
r 8.726208 2 3 tcp 592 ------- 1 0.0 4.0 116 295
r 8.741995 2 3 tcp 592 ------- 1 0.0 4.0 117 296
r 8.757781 2 3 tcp 592 ------- 1 0.0 4.0 118 297
r 8.773568 2 3 tcp 592 ------- 1 0.0 4.0 119 298
r 8.789355 2 3 tcp 592 ------- 1 0.0 4.0 120 299
r 8.805141 2 3 tcp 592 ------- 1 0.0 4.0 121 300
r 8.820928 2 3 tcp 592 ------- 1 0.0 4.0 122 301
r 8.836715 2 3 tcp 592 ------- 1 0.0 4.0 123 302
r 8.852501 2 3 tcp 592 ------- 1 0.0 4.0 124 303
+ 8.992555 2 3 tcp 592 ------- 1 0.0 4.0 125 325
- 8.992555 2 3 tcp 592 ------- 1 0.0 4.0 125 325
+ 9.008341 2 3 tcp 592 ------- 1 0.0 4.0 126 326
- 9.008341 2 3 tcp 592 ------- 1 0.0 4.0 126 326
+ 9.024128 2 3 tcp 592 ------- 1 0.0 4.0 127 327
- 9.024128 2 3 tcp 592 ------- 1 0.0 4.0 127 327
+ 9.039915 2 3 tcp 592 ------- 1 0.0 4.0 128 328
- 9.039915 2 3 tcp 592 ------- 1 0.0 4.0 128 328
+ 9.055701 2 3 tcp 592 ------- 1 0.0 4.0 129 329
- 9.055701 2 3 tcp 592 ------- 1 0.0 4.0 129 329
+ 9.071488 2 3 tcp 592 ------- 1 0.0 4.0 130 330
- 9.071488 2 3 tcp 592 ------- 1 0.0 4.0 130 330
+ 9.073856 2 3 tcp 592 ------- 1 0.0 4.0 131 331
- 9.087275 2 3 tcp 592 ------- 1 0.0 4.0 131 331
+ 9.087275 2 3 tcp 592 ------- 1 0.0 4.0 132 332
- 9.103061 2 3 tcp 592 ------- 1 0.0 4.0 132 332
+ 9.103061 2 3 tcp 592 ------- 1 0.0 4.0 133 333
- 9.118848 2 3 tcp 592 ------- 1 0.0 4.0 133 333
+ 9.118848 2 3 tcp 592 ------- 1 0.0 4.0 134 334
- 9.134635 2 3 tcp 592 ------- 1 0.0 4.0 134 334
+ 9.134635 2 3 tcp 592 ------- 1 0.0 4.0 135 335
- 9.150421 2 3 tcp 592 ------- 1 0.0 4.0 135 335
+ 9.150421 2 3 tcp 592 ------- 1 0.0 4.0 136 336
- 9.166208 2 3 tcp 592 ------- 1 0.0 4.0 136 336
+ 9.166208 2 3 tcp 592 ------- 1 0.0 4.0 137 337
- 9.181995 2 3 tcp 592 ------- 1 0.0 4.0 137 337
r 9.208341 2 3 tcp 592 ------- 1 0.0 4.0 125 325
r 9.224128 2 3 tcp 592 ------- 1 0.0 4.0 126 326
r 9.239915 2 3 tcp 592 ------- 1 0.0 4.0 127 327
r 9.255701 2 3 tcp 592 ------- 1 0.0 4.0 128 328
r 9.271488 2 3 tcp 592 ------- 1 0.0 4.0 129 329
r 9.287275 2 3 tcp 592 ------- 1 0.0 4.0 130 330
r 9.303061 2 3 tcp 592 ------- 1 0.0 4.0 131 331
r 9.318848 2 3 tcp 592 ------- 1 0.0 4.0 132 332
r 9.334635 2 3 tcp 592 ------- 1 0.0 4.0 133 333
r 9.350421 2 3 tcp 592 ------- 1 0.0 4.0 134 334
r 9.366208 2 3 tcp 592 ------- 1 0.0 4.0 135 335
r 9.381995 2 3 tcp 592 ------- 1 0.0 4.0 136 336
r 9.397781 2 3 tcp 592 ------- 1 0.0 4.0 137 337
+ 9.522048 2 3 tcp 592 ------- 1 0.0 4.0 138 351
- 9.522048 2 3 tcp 592 ------- 1 0.0 4.0 138 351
+ 9.537835 2 3 tcp 592 ------- 1 0.0 4.0 139 352
- 9.537835 2 3 tcp 592 ------- 1 0.0 4.0 139 352
+ 9.553621 2 3 tcp 592 ------- 1 0.0 4.0 140 353
- 9.553621 2 3 tcp 592 ------- 1 0.0 4.0 140 353
+ 9.569408 2 3 tcp 592 ------- 1 0.0 4.0 141 354
- 9.569408 2 3 tcp 592 ------- 1 0.0 4.0 141 354
+ 9.585195 2 3 tcp 592 ------- 1 0.0 4.0 142 355
- 9.585195 2 3 tcp 592 ------- 1 0.0 4.0 142 355
+ 9.600981 2 3 tcp 592 ------- 1 0.0 4.0 143 356
- 9.600981 2 3 tcp 592 ------- 1 0.0 4.0 143 356
+ 9.616768 2 3 tcp 592 ------- 1 0.0 4.0 144 357
- 9.616768 2 3 tcp 592 ------- 1 0.0 4.0 144 357
+ 9.619136 2 3 tcp 592 ------- 1 0.0 4.0 145 358
- 9.632555 2 3 tcp 592 ------- 1 0.0 4.0 145 358
+ 9.632555 2 3 tcp 592 ------- 1 0.0 4.0 146 359
- 9.648341 2 3 tcp 592 ------- 1 0.0 4.0 146 359
+ 9.648341 2 3 tcp 592 ------- 1 0.0 4.0 147 360
- 9.664128 2 3 tcp 592 ------- 1 0.0 4.0 147 360
+ 9.664128 2 3 tcp 592 ------- 1 0.0 4.0 148 361
- 9.679915 2 3 tcp 592 ------- 1 0.0 4.0 148 361
+ 9.679915 2 3 tcp 592 ------- 1 0.0 4.0 149 362
- 9.695701 2 3 tcp 592 ------- 1 0.0 4.0 149 362
+ 9.695701 2 3 tcp 592 ------- 1 0.0 4.0 150 363
- 9.711488 2 3 tcp 592 ------- 1 0.0 4.0 150 363
+ 9.711488 2 3 tcp 592 ------- 1 0.0 4.0 151 364
- 9.727275 2 3 tcp 592 ------- 1 0.0 4.0 151 364
r 9.737835 2 3 tcp 592 ------- 1 0.0 4.0 138 351
r 9.753621 2 3 tcp 592 ------- 1 0.0 4.0 139 352
r 9.769408 2 3 tcp 592 ------- 1 0.0 4.0 140 353
r 9.785195 2 3 tcp 592 ------- 1 0.0 4.0 141 354
r 9.800981 2 3 tcp 592 ------- 1 0.0 4.0 142 355
r 9.816768 2 3 tcp 592 ------- 1 0.0 4.0 143 356
r 9.832555 2 3 tcp 592 ------- 1 0.0 4.0 144 357
r 9.848341 2 3 tcp 592 ------- 1 0.0 4.0 145 358
r 9.864128 2 3 tcp 592 ------- 1 0.0 4.0 146 359
r 9.879915 2 3 tcp 592 ------- 1 0.0 4.0 147 360
r 9.895701 2 3 tcp 592 ------- 1 0.0 4.0 148 361
r 9.911488 2 3 tcp 592 ------- 1 0.0 4.0 149 362
r 9.927275 2 3 tcp 592 ------- 1 0.0 4.0 150 363
r 9.943061 2 3 tcp 592 ------- 1 0.0 4.0 151 364
+ 10.051541 2 3 tcp 592 ------- 1 0.0 4.0 152 379
- 10.051541 2 3 tcp 592 ------- 1 0.0 4.0 152 379
+ 10.067328 2 3 tcp 592 ------- 1 0.0 4.0 153 380
- 10.067328 2 3 tcp 592 ------- 1 0.0 4.0 153 380
+ 10.083115 2 3 tcp 592 ------- 1 0.0 4.0 154 381
- 10.083115 2 3 tcp 592 ------- 1 0.0 4.0 154 381
+ 10.098901 2 3 tcp 592 ------- 1 0.0 4.0 155 382
- 10.098901 2 3 tcp 592 ------- 1 0.0 4.0 155 382
+ 10.114688 2 3 tcp 592 ------- 1 0.0 4.0 156 383
- 10.114688 2 3 tcp 592 ------- 1 0.0 4.0 156 383
+ 10.130475 2 3 tcp 592 ------- 1 0.0 4.0 157 384
- 10.130475 2 3 tcp 592 ------- 1 0.0 4.0 157 384
+ 10.146261 2 3 tcp 592 ------- 1 0.0 4.0 158 385
- 10.146261 2 3 tcp 592 ------- 1 0.0 4.0 158 385
+ 10.162048 2 3 tcp 592 ------- 1 0.0 4.0 159 386
- 10.162048 2 3 tcp 592 ------- 1 0.0 4.0 159 386
+ 10.177835 2 3 tcp 592 ------- 1 0.0 4.0 160 387
- 10.177835 2 3 tcp 592 ------- 1 0.0 4.0 160 387
+ 10.180203 2 3 tcp 592 ------- 1 0.0 4.0 161 388
- 10.193621 2 3 tcp 592 ------- 1 0.0 4.0 161 388
+ 10.193621 2 3 tcp 592 ------- 1 0.0 4.0 162 389
- 10.209408 2 3 tcp 592 ------- 1 0.0 4.0 162 389
+ 10.209408 2 3 tcp 592 ------- 1 0.0 4.0 163 390
- 10.225195 2 3 tcp 592 ------- 1 0.0 4.0 163 390
+ 10.225195 2 3 tcp 592 ------- 1 0.0 4.0 164 391
- 10.240981 2 3 tcp 592 ------- 1 0.0 4.0 164 391
+ 10.240981 2 3 tcp 592 ------- 1 0.0 4.0 165 392
- 10.256768 2 3 tcp 592 ------- 1 0.0 4.0 165 392
+ 10.256768 2 3 tcp 592 ------- 1 0.0 4.0 166 393
r 10.267328 2 3 tcp 592 ------- 1 0.0 4.0 152 379
- 10.272555 2 3 tcp 592 ------- 1 0.0 4.0 166 393
r 10.283115 2 3 tcp 592 ------- 1 0.0 4.0 153 380
r 10.298901 2 3 tcp 592 ------- 1 0.0 4.0 154 381
r 10.314688 2 3 tcp 592 ------- 1 0.0 4.0 155 382
r 10.330475 2 3 tcp 592 ------- 1 0.0 4.0 156 383
r 10.346261 2 3 tcp 592 ------- 1 0.0 4.0 157 384
r 10.362048 2 3 tcp 592 ------- 1 0.0 4.0 158 385
r 10.377835 2 3 tcp 592 ------- 1 0.0 4.0 159 386
r 10.393621 2 3 tcp 592 ------- 1 0.0 4.0 160 387
r 10.409408 2 3 tcp 592 ------- 1 0.0 4.0 161 388
r 10.425195 2 3 tcp 592 ------- 1 0.0 4.0 162 389
r 10.440981 2 3 tcp 592 ------- 1 0.0 4.0 163 390
r 10.456768 2 3 tcp 592 ------- 1 0.0 4.0 164 391
r 10.472555 2 3 tcp 592 ------- 1 0.0 4.0 165 392
r 10.488341 2 3 tcp 592 ------- 1 0.0 4.0 166 393
+ 10.581035 2 3 tcp 592 ------- 1 0.0 4.0 167 409
- 10.581035 2 3 tcp 592 ------- 1 0.0 4.0 167 409