+ 0.11016 2 3 tcp 40 ------- 1 0.0 4.0 0 0
- 0.11016 2 3 tcp 40 ------- 1 0.0 4.0 0 0
r 0.311227 2 3 tcp 40 ------- 1 0.0 4.0 0 0
+ 0.616101 2 3 tcp 592 ------- 1 0.0 4.0 1 2
- 0.616101 2 3 tcp 592 ------- 1 0.0 4.0 1 2
+ 0.618469 2 3 tcp 592 ------- 1 0.0 4.0 2 3
- 0.631888 2 3 tcp 592 ------- 1 0.0 4.0 2 3
r 0.831888 2 3 tcp 592 ------- 1 0.0 4.0 1 2
r 0.847675 2 3 tcp 592 ------- 1 0.0 4.0 2 3
+ 1.145595 2 3 tcp 592 ------- 1 0.0 4.0 3 6
- 1.145595 2 3 tcp 592 ------- 1 0.0 4.0 3 6
+ 1.147963 2 3 tcp 592 ------- 1 0.0 4.0 4 7
- 1.161381 2 3 tcp 592 ------- 1 0.0 4.0 4 7
+ 1.161381 2 3 tcp 592 ------- 1 0.0 4.0 5 8
+ 1.163749 2 3 tcp 592 ------- 1 0.0 4.0 6 9
- 1.177168 2 3 tcp 592 ------- 1 0.0 4.0 5 8
- 1.192955 2 3 tcp 592 ------- 1 0.0 4.0 6 9
r 1.361381 2 3 tcp 592 ------- 1 0.0 4.0 3 6
r 1.377168 2 3 tcp 592 ------- 1 0.0 4.0 4 7
r 1.392955 2 3 tcp 592 ------- 1 0.0 4.0 5 8
r 1.408741 2 3 tcp 592 ------- 1 0.0 4.0 6 9
+ 1.675088 2 3 tcp 592 ------- 1 0.0 4.0 7 14
- 1.675088 2 3 tcp 592 ------- 1 0.0 4.0 7 14
+ 1.677456 2 3 tcp 592 ------- 1 0.0 4.0 8 15
- 1.690875 2 3 tcp 592 ------- 1 0.0 4.0 8 15
+ 1.690875 2 3 tcp 592 ------- 1 0.0 4.0 9 16
+ 1.693243 2 3 tcp 592 ------- 1 0.0 4.0 10 17
- 1.706661 2 3 tcp 592 ------- 1 0.0 4.0 9 16
+ 1.706661 2 3 tcp 592 ------- 1 0.0 4.0 11 18
+ 1.709029 2 3 tcp 592 ------- 1 0.0 4.0 12 19
- 1.722448 2 3 tcp 592 ------- 1 0.0 4.0 10 17
+ 1.722448 2 3 tcp 592 ------- 1 0.0 4.0 13 20
+ 1.724816 2 3 tcp 592 ------- 1 0.0 4.0 14 21
- 1.738235 2 3 tcp 592 ------- 1 0.0 4.0 11 18
- 1.754021 2 3 tcp 592 ------- 1 0.0 4.0 12 19
- 1.769808 2 3 tcp 592 ------- 1 0.0 4.0 13 20
- 1.785595 2 3 tcp 592 ------- 1 0.0 4.0 14 21
r 1.890875 2 3 tcp 592 ------- 1 0.0 4.0 7 14
r 1.906661 2 3 tcp 592 ------- 1 0.0 4.0 8 15
r 1.922448 2 3 tcp 592 ------- 1 0.0 4.0 9 16
r 1.938235 2 3 tcp 592 ------- 1 0.0 4.0 10 17
r 1.954021 2 3 tcp 592 ------- 1 0.0 4.0 11 18
r 1.969808 2 3 tcp 592 ------- 1 0.0 4.0 12 19
r 1.985595 2 3 tcp 592 ------- 1 0.0 4.0 13 20
r 2.001381 2 3 tcp 592 ------- 1 0.0 4.0 14 21
+ 2.204581 2 3 tcp 592 ------- 1 0.0 4.0 15 30
- 2.204581 2 3 tcp 592 ------- 1 0.0 4.0 15 30
+ 2.206949 2 3 tcp 592 ------- 1 0.0 4.0 16 31
- 2.220368 2 3 tcp 592 ------- 1 0.0 4.0 16 31
+ 2.220368 2 3 tcp 592 ------- 1 0.0 4.0 17 32
+ 2.222736 2 3 tcp 592 ------- 1 0.0 4.0 18 33
- 2.236155 2 3 tcp 592 ------- 1 0.0 4.0 17 32
+ 2.236155 2 3 tcp 592 ------- 1 0.0 4.0 19 34
+ 2.238523 2 3 tcp 592 ------- 1 0.0 4.0 20 35
- 2.251941 2 3 tcp 592 ------- 1 0.0 4.0 18 33
+ 2.251941 2 3 tcp 592 ------- 1 0.0 4.0 21 36
+ 2.254309 2 3 tcp 592 ------- 1 0.0 4.0 22 37
- 2.267728 2 3 tcp 592 ------- 1 0.0 4.0 19 34
+ 2.267728 2 3 tcp 592 ------- 1 0.0 4.0 23 38
+ 2.270096 2 3 tcp 592 ------- 1 0.0 4.0 24 39
- 2.283515 2 3 tcp 592 ------- 1 0.0 4.0 20 35
+ 2.283515 2 3 tcp 592 ------- 1 0.0 4.0 25 40
+ 2.285883 2 3 tcp 592 ------- 1 0.0 4.0 26 41
- 2.299301 2 3 tcp 592 ------- 1 0.0 4.0 21 36
+ 2.299301 2 3 tcp 592 ------- 1 0.0 4.0 27 42
+ 2.301669 2 3 tcp 592 ------- 1 0.0 4.0 28 43
- 2.315088 2 3 tcp 592 ------- 1 0.0 4.0 22 37
+ 2.315088 2 3 tcp 592 ------- 1 0.0 4.0 29 44
+ 2.317456 2 3 tcp 592 ------- 1 0.0 4.0 30 45
- 2.330875 2 3 tcp 592 ------- 1 0.0 4.0 23 38
- 2.346661 2 3 tcp 592 ------- 1 0.0 4.0 24 39
- 2.362448 2 3 tcp 592 ------- 1 0.0 4.0 25 40
- 2.378235 2 3 tcp 592 ------- 1 0.0 4.0 26 41
- 2.394021 2 3 tcp 592 ------- 1 0.0 4.0 27 42
- 2.409808 2 3 tcp 592 ------- 1 0.0 4.0 28 43
r 2.420368 2 3 tcp 592 ------- 1 0.0 4.0 15 30
- 2.425595 2 3 tcp 592 ------- 1 0.0 4.0 29 44
r 2.436155 2 3 tcp 592 ------- 1 0.0 4.0 16 31
- 2.441381 2 3 tcp 592 ------- 1 0.0 4.0 30 45
r 2.451941 2 3 tcp 592 ------- 1 0.0 4.0 17 32
r 2.467728 2 3 tcp 592 ------- 1 0.0 4.0 18 33
r 2.483515 2 3 tcp 592 ------- 1 0.0 4.0 19 34
r 2.499301 2 3 tcp 592 ------- 1 0.0 4.0 20 35
r 2.515088 2 3 tcp 592 ------- 1 0.0 4.0 21 36
r 2.530875 2 3 tcp 592 ------- 1 0.0 4.0 22 37
r 2.546661 2 3 tcp 592 ------- 1 0.0 4.0 23 38
r 2.562448 2 3 tcp 592 ------- 1 0.0 4.0 24 39
r 2.578235 2 3 tcp 592 ------- 1 0.0 4.0 25 40
r 2.594021 2 3 tcp 592 ------- 1 0.0 4.0 26 41
r 2.609808 2 3 tcp 592 ------- 1 0.0 4.0 27 42
r 2.625595 2 3 tcp 592 ------- 1 0.0 4.0 28 43
r 2.641381 2 3 tcp 592 ------- 1 0.0 4.0 29 44
r 2.657168 2 3 tcp 592 ------- 1 0.0 4.0 30 45
+ 2.734075 2 3 tcp 592 ------- 1 0.0 4.0 31 62
- 2.734075 2 3 tcp 592 ------- 1 0.0 4.0 31 62
+ 2.736443 2 3 tcp 592 ------- 1 0.0 4.0 32 63
- 2.749861 2 3 tcp 592 ------- 1 0.0 4.0 32 63
+ 2.749861 2 3 tcp 592 ------- 1 0.0 4.0 33 64
+ 2.752229 2 3 tcp 592 ------- 1 0.0 4.0 34 65
- 2.765648 2 3 tcp 592 ------- 1 0.0 4.0 33 64
+ 2.765648 2 3 tcp 592 ------- 1 0.0 4.0 35 66
+ 2.768016 2 3 tcp 592 ------- 1 0.0 4.0 36 67
- 2.781435 2 3 tcp 592 ------- 1 0.0 4.0 34 65
+ 2.781435 2 3 tcp 592 ------- 1 0.0 4.0 37 68
+ 2.783803 2 3 tcp 592 ------- 1 0.0 4.0 38 69
- 2.797221 2 3 tcp 592 ------- 1 0.0 4.0 35 66
+ 2.797221 2 3 tcp 592 ------- 1 0.0 4.0 39 70
+ 2.799589 2 3 tcp 592 ------- 1 0.0 4.0 40 71
- 2.813008 2 3 tcp 592 ------- 1 0.0 4.0 36 67
+ 2.813008 2 3 tcp 592 ------- 1 0.0 4.0 41 72
+ 2.815376 2 3 tcp 592 ------- 1 0.0 4.0 42 73
- 2.828795 2 3 tcp 592 ------- 1 0.0 4.0 37 68
+ 2.828795 2 3 tcp 592 ------- 1 0.0 4.0 43 74
+ 2.831163 2 3 tcp 592 ------- 1 0.0 4.0 44 75
- 2.844581 2 3 tcp 592 ------- 1 0.0 4.0 38 69
+ 2.844581 2 3 tcp 592 ------- 1 0.0 4.0 45 76
+ 2.846949 2 3 tcp 592 ------- 1 0.0 4.0 46 77
- 2.860368 2 3 tcp 592 ------- 1 0.0 4.0 39 70
+ 2.860368 2 3 tcp 592 ------- 1 0.0 4.0 47 78
+ 2.862736 2 3 tcp 592 ------- 1 0.0 4.0 48 79
- 2.876155 2 3 tcp 592 ------- 1 0.0 4.0 40 71
+ 2.876155 2 3 tcp 592 ------- 1 0.0 4.0 49 80
+ 2.878523 2 3 tcp 592 ------- 1 0.0 4.0 50 81
d 2.878523 2 3 tcp 592 ------- 1 0.0 4.0 50 81
- 2.891941 2 3 tcp 592 ------- 1 0.0 4.0 41 72
+ 2.891941 2 3 tcp 592 ------- 1 0.0 4.0 51 82
+ 2.894309 2 3 tcp 592 ------- 1 0.0 4.0 52 83
d 2.894309 2 3 tcp 592 ------- 1 0.0 4.0 52 83
- 2.907728 2 3 tcp 592 ------- 1 0.0 4.0 42 73
+ 2.907728 2 3 tcp 592 ------- 1 0.0 4.0 53 84
+ 2.910096 2 3 tcp 592 ------- 1 0.0 4.0 54 85
d 2.910096 2 3 tcp 592 ------- 1 0.0 4.0 54 85
- 2.923515 2 3 tcp 592 ------- 1 0.0 4.0 43 74
+ 2.923515 2 3 tcp 592 ------- 1 0.0 4.0 55 86
+ 2.925883 2 3 tcp 592 ------- 1 0.0 4.0 56 87
d 2.925883 2 3 tcp 592 ------- 1 0.0 4.0 56 87
- 2.939301 2 3 tcp 592 ------- 1 0.0 4.0 44 75
+ 2.939301 2 3 tcp 592 ------- 1 0.0 4.0 57 88
+ 2.941669 2 3 tcp 592 ------- 1 0.0 4.0 58 89
d 2.941669 2 3 tcp 592 ------- 1 0.0 4.0 58 89
r 2.949861 2 3 tcp 592 ------- 1 0.0 4.0 31 62
- 2.955088 2 3 tcp 592 ------- 1 0.0 4.0 45 76
+ 2.955088 2 3 tcp 592 ------- 1 0.0 4.0 59 90
+ 2.957456 2 3 tcp 592 ------- 1 0.0 4.0 60 91
d 2.957456 2 3 tcp 592 ------- 1 0.0 4.0 60 91
r 2.965648 2 3 tcp 592 ------- 1 0.0 4.0 32 63
- 2.970875 2 3 tcp 592 ------- 1 0.0 4.0 46 77
+ 2.970875 2 3 tcp 592 ------- 1 0.0 4.0 61 92
+ 2.973243 2 3 tcp 592 ------- 1 0.0 4.0 62 93
d 2.973243 2 3 tcp 592 ------- 1 0.0 4.0 62 93
r 2.981435 2 3 tcp 592 ------- 1 0.0 4.0 33 64
- 2.986661 2 3 tcp 592 ------- 1 0.0 4.0 47 78
r 2.997221 2 3 tcp 592 ------- 1 0.0 4.0 34 65
- 3.002448 2 3 tcp 592 ------- 1 0.0 4.0 48 79
r 3.013008 2 3 tcp 592 ------- 1 0.0 4.0 35 66
- 3.018235 2 3 tcp 592 ------- 1 0.0 4.0 49 80
r 3.028795 2 3 tcp 592 ------- 1 0.0 4.0 36 67
- 3.034021 2 3 tcp 592 ------- 1 0.0 4.0 51 82
r 3.044581 2 3 tcp 592 ------- 1 0.0 4.0 37 68
- 3.049808 2 3 tcp 592 ------- 1 0.0 4.0 53 84
r 3.060368 2 3 tcp 592 ------- 1 0.0 4.0 38 69
- 3.065595 2 3 tcp 592 ------- 1 0.0 4.0 55 86
r 3.076155 2 3 tcp 592 ------- 1 0.0 4.0 39 70
- 3.081381 2 3 tcp 592 ------- 1 0.0 4.0 57 88
r 3.091941 2 3 tcp 592 ------- 1 0.0 4.0 40 71
- 3.097168 2 3 tcp 592 ------- 1 0.0 4.0 59 90
r 3.107728 2 3 tcp 592 ------- 1 0.0 4.0 41 72
- 3.112955 2 3 tcp 592 ------- 1 0.0 4.0 61 92
r 3.123515 2 3 tcp 592 ------- 1 0.0 4.0 42 73
r 3.139301 2 3 tcp 592 ------- 1 0.0 4.0 43 74
r 3.155088 2 3 tcp 592 ------- 1 0.0 4.0 44 75
r 3.170875 2 3 tcp 592 ------- 1 0.0 4.0 45 76
r 3.186661 2 3 tcp 592 ------- 1 0.0 4.0 46 77
r 3.202448 2 3 tcp 592 ------- 1 0.0 4.0 47 78
r 3.218235 2 3 tcp 592 ------- 1 0.0 4.0 48 79
r 3.234021 2 3 tcp 592 ------- 1 0.0 4.0 49 80
r 3.249808 2 3 tcp 592 ------- 1 0.0 4.0 51 82
+ 3.263568 2 3 tcp 592 ------- 1 0.0 4.0 63 110
- 3.263568 2 3 tcp 592 ------- 1 0.0 4.0 63 110
r 3.265595 2 3 tcp 592 ------- 1 0.0 4.0 53 84
+ 3.265936 2 3 tcp 592 ------- 1 0.0 4.0 64 111
- 3.279355 2 3 tcp 592 ------- 1 0.0 4.0 64 111
+ 3.279355 2 3 tcp 592 ------- 1 0.0 4.0 65 113
r 3.281381 2 3 tcp 592 ------- 1 0.0 4.0 55 86
+ 3.281723 2 3 tcp 592 ------- 1 0.0 4.0 66 114
- 3.295141 2 3 tcp 592 ------- 1 0.0 4.0 65 113
+ 3.295141 2 3 tcp 592 ------- 1 0.0 4.0 67 116
r 3.297168 2 3 tcp 592 ------- 1 0.0 4.0 57 88
+ 3.297509 2 3 tcp 592 ------- 1 0.0 4.0 68 117
- 3.310928 2 3 tcp 592 ------- 1 0.0 4.0 66 114
+ 3.310928 2 3 tcp 592 ------- 1 0.0 4.0 69 119
r 3.312955 2 3 tcp 592 ------- 1 0.0 4.0 59 90
+ 3.313296 2 3 tcp 592 ------- 1 0.0 4.0 70 120
- 3.326715 2 3 tcp 592 ------- 1 0.0 4.0 67 116
+ 3.326715 2 3 tcp 592 ------- 1 0.0 4.0 71 122
r 3.328741 2 3 tcp 592 ------- 1 0.0 4.0 61 92
+ 3.329083 2 3 tcp 592 ------- 1 0.0 4.0 72 123
- 3.342501 2 3 tcp 592 ------- 1 0.0 4.0 68 117
+ 3.342501 2 3 tcp 592 ------- 1 0.0 4.0 73 125
+ 3.344869 2 3 tcp 592 ------- 1 0.0 4.0 74 126
- 3.358288 2 3 tcp 592 ------- 1 0.0 4.0 69 119
+ 3.358288 2 3 tcp 592 ------- 1 0.0 4.0 75 128
+ 3.360656 2 3 tcp 592 ------- 1 0.0 4.0 76 129
- 3.374075 2 3 tcp 592 ------- 1 0.0 4.0 70 120
+ 3.374075 2 3 tcp 592 ------- 1 0.0 4.0 77 131
+ 3.376443 2 3 tcp 592 ------- 1 0.0 4.0 78 132
- 3.389861 2 3 tcp 592 ------- 1 0.0 4.0 71 122
+ 3.389861 2 3 tcp 592 ------- 1 0.0 4.0 79 134
+ 3.392229 2 3 tcp 592 ------- 1 0.0 4.0 80 135
- 3.405648 2 3 tcp 592 ------- 1 0.0 4.0 72 123
+ 3.405648 2 3 tcp 592 ------- 1 0.0 4.0 81 137
+ 3.408016 2 3 tcp 592 ------- 1 0.0 4.0 82 138
d 3.408016 2 3 tcp 592 ------- 1 0.0 4.0 82 138
- 3.421435 2 3 tcp 592 ------- 1 0.0 4.0 73 125
+ 3.421435 2 3 tcp 592 ------- 1 0.0 4.0 83 139
+ 3.423803 2 3 tcp 592 ------- 1 0.0 4.0 84 140
d 3.423803 2 3 tcp 592 ------- 1 0.0 4.0 84 140
- 3.437221 2 3 tcp 592 ------- 1 0.0 4.0 74 126
+ 3.437221 2 3 tcp 592 ------- 1 0.0 4.0 85 141
+ 3.439589 2 3 tcp 592 ------- 1 0.0 4.0 86 142
d 3.439589 2 3 tcp 592 ------- 1 0.0 4.0 86 142
- 3.453008 2 3 tcp 592 ------- 1 0.0 4.0 75 128
+ 3.453008 2 3 tcp 592 ------- 1 0.0 4.0 87 143
+ 3.455376 2 3 tcp 592 ------- 1 0.0 4.0 88 144
d 3.455376 2 3 tcp 592 ------- 1 0.0 4.0 88 144
- 3.468795 2 3 tcp 592 ------- 1 0.0 4.0 76 129
+ 3.468795 2 3 tcp 592 ------- 1 0.0 4.0 89 145
+ 3.471163 2 3 tcp 592 ------- 1 0.0 4.0 90 146
d 3.471163 2 3 tcp 592 ------- 1 0.0 4.0 90 146
r 3.479355 2 3 tcp 592 ------- 1 0.0 4.0 63 110
- 3.484581 2 3 tcp 592 ------- 1 0.0 4.0 77 131
+ 3.484581 2 3 tcp 592 ------- 1 0.0 4.0 91 147
+ 3.486949 2 3 tcp 592 ------- 1 0.0 4.0 92 148
d 3.486949 2 3 tcp 592 ------- 1 0.0 4.0 92 148
r 3.495141 2 3 tcp 592 ------- 1 0.0 4.0 64 111
- 3.500368 2 3 tcp 592 ------- 1 0.0 4.0 78 132
+ 3.500368 2 3 tcp 592 ------- 1 0.0 4.0 93 149
+ 3.502736 2 3 tcp 592 ------- 1 0.0 4.0 94 150
d 3.502736 2 3 tcp 592 ------- 1 0.0 4.0 94 150
r 3.510928 2 3 tcp 592 ------- 1 0.0 4.0 65 113
- 3.516155 2 3 tcp 592 ------- 1 0.0 4.0 79 134
+ 3.516155 2 3 tcp 592 ------- 1 0.0 4.0 95 151
+ 3.518523 2 3 tcp 592 ------- 1 0.0 4.0 96 152
d 3.518523 2 3 tcp 592 ------- 1 0.0 4.0 96 152
r 3.526715 2 3 tcp 592 ------- 1 0.0 4.0 66 114
- 3.531941 2 3 tcp 592 ------- 1 0.0 4.0 80 135
+ 3.531941 2 3 tcp 592 ------- 1 0.0 4.0 97 153
+ 3.534309 2 3 tcp 592 ------- 1 0.0 4.0 98 154
d 3.534309 2 3 tcp 592 ------- 1 0.0 4.0 98 154
r 3.542501 2 3 tcp 592 ------- 1 0.0 4.0 67 116
- 3.547728 2 3 tcp 592 ------- 1 0.0 4.0 81 137
+ 3.547728 2 3 tcp 592 ------- 1 0.0 4.0 99 156
+ 3.550096 2 3 tcp 592 ------- 1 0.0 4.0 100 157
d 3.550096 2 3 tcp 592 ------- 1 0.0 4.0 100 157
r 3.558288 2 3 tcp 592 ------- 1 0.0 4.0 68 117
- 3.563515 2 3 tcp 592 ------- 1 0.0 4.0 83 139
+ 3.563515 2 3 tcp 592 ------- 1 0.0 4.0 101 159
r 3.574075 2 3 tcp 592 ------- 1 0.0 4.0 69 119
- 3.579301 2 3 tcp 592 ------- 1 0.0 4.0 85 141
+ 3.579301 2 3 tcp 592 ------- 1 0.0 4.0 102 161
r 3.589861 2 3 tcp 592 ------- 1 0.0 4.0 70 120
- 3.595088 2 3 tcp 592 ------- 1 0.0 4.0 87 143
+ 3.595088 2 3 tcp 592 ---A--- 1 0.0 4.0 50 163
r 3.605648 2 3 tcp 592 ------- 1 0.0 4.0 71 122
- 3.610875 2 3 tcp 592 ------- 1 0.0 4.0 89 145
r 3.621435 2 3 tcp 592 ------- 1 0.0 4.0 72 123
- 3.626661 2 3 tcp 592 ------- 1 0.0 4.0 91 147
r 3.637221 2 3 tcp 592 ------- 1 0.0 4.0 73 125
- 3.642448 2 3 tcp 592 ------- 1 0.0 4.0 93 149
r 3.653008 2 3 tcp 592 ------- 1 0.0 4.0 74 126
- 3.658235 2 3 tcp 592 ------- 1 0.0 4.0 95 151
r 3.668795 2 3 tcp 592 ------- 1 0.0 4.0 75 128
- 3.674021 2 3 tcp 592 ------- 1 0.0 4.0 97 153
r 3.684581 2 3 tcp 592 ------- 1 0.0 4.0 76 129
- 3.689808 2 3 tcp 592 ------- 1 0.0 4.0 99 156
r 3.700368 2 3 tcp 592 ------- 1 0.0 4.0 77 131
- 3.705595 2 3 tcp 592 ------- 1 0.0 4.0 101 159
r 3.716155 2 3 tcp 592 ------- 1 0.0 4.0 78 132
- 3.721381 2 3 tcp 592 ------- 1 0.0 4.0 102 161
r 3.731941 2 3 tcp 592 ------- 1 0.0 4.0 79 134
- 3.737168 2 3 tcp 592 ---A--- 1 0.0 4.0 50 163
r 3.747728 2 3 tcp 592 ------- 1 0.0 4.0 80 135
r 3.763515 2 3 tcp 592 ------- 1 0.0 4.0 81 137
r 3.779301 2 3 tcp 592 ------- 1 0.0 4.0 83 139
r 3.795088 2 3 tcp 592 ------- 1 0.0 4.0 85 141
r 3.810875 2 3 tcp 592 ------- 1 0.0 4.0 87 143
r 3.826661 2 3 tcp 592 ------- 1 0.0 4.0 89 145
r 3.842448 2 3 tcp 592 ------- 1 0.0 4.0 91 147
r 3.858235 2 3 tcp 592 ------- 1 0.0 4.0 93 149
r 3.874021 2 3 tcp 592 ------- 1 0.0 4.0 95 151
r 3.889808 2 3 tcp 592 ------- 1 0.0 4.0 97 153
r 3.905595 2 3 tcp 592 ------- 1 0.0 4.0 99 156
r 3.921381 2 3 tcp 592 ------- 1 0.0 4.0 101 159
r 3.937168 2 3 tcp 592 ------- 1 0.0 4.0 102 161
r 3.952955 2 3 tcp 592 ---A--- 1 0.0 4.0 50 163
+ 4.266661 2 3 tcp 592 ------- 1 0.0 4.0 52 191
- 4.266661 2 3 tcp 592 ------- 1 0.0 4.0 52 191
+ 4.269029 2 3 tcp 592 ------- 1 0.0 4.0 53 192
- 4.282448 2 3 tcp 592 ------- 1 0.0 4.0 53 192
r 4.482448 2 3 tcp 592 ------- 1 0.0 4.0 52 191
r 4.498235 2 3 tcp 592 ------- 1 0.0 4.0 53 192
+ 4.796155 2 3 tcp 592 ------- 1 0.0 4.0 54 195
- 4.796155 2 3 tcp 592 ------- 1 0.0 4.0 54 195
+ 4.798523 2 3 tcp 592 ------- 1 0.0 4.0 55 196
+ 4.800891 2 3 tcp 592 ------- 1 0.0 4.0 56 197
- 4.811941 2 3 tcp 592 ------- 1 0.0 4.0 55 196
+ 4.811941 2 3 tcp 592 ------- 1 0.0 4.0 57 198
- 4.827728 2 3 tcp 592 ------- 1 0.0 4.0 56 197
- 4.843515 2 3 tcp 592 ------- 1 0.0 4.0 57 198
r 5.011941 2 3 tcp 592 ------- 1 0.0 4.0 54 195
r 5.027728 2 3 tcp 592 ------- 1 0.0 4.0 55 196
r 5.043515 2 3 tcp 592 ------- 1 0.0 4.0 56 197
r 5.059301 2 3 tcp 592 ------- 1 0.0 4.0 57 198
+ 5.325648 2 3 tcp 592 ------- 1 0.0 4.0 58 203
- 5.325648 2 3 tcp 592 ------- 1 0.0 4.0 58 203
+ 5.328016 2 3 tcp 592 ------- 1 0.0 4.0 59 204
- 5.341435 2 3 tcp 592 ------- 1 0.0 4.0 59 204
+ 5.341435 2 3 tcp 592 ------- 1 0.0 4.0 60 205
- 5.357221 2 3 tcp 592 ------- 1 0.0 4.0 60 205
+ 5.357221 2 3 tcp 592 ------- 1 0.0 4.0 61 206
+ 5.359589 2 3 tcp 592 ------- 1 0.0 4.0 62 207
- 5.373008 2 3 tcp 592 ------- 1 0.0 4.0 61 206
+ 5.373008 2 3 tcp 592 ------- 1 0.0 4.0 63 208
- 5.388795 2 3 tcp 592 ------- 1 0.0 4.0 62 207
- 5.404581 2 3 tcp 592 ------- 1 0.0 4.0 63 208
r 5.541435 2 3 tcp 592 ------- 1 0.0 4.0 58 203
r 5.557221 2 3 tcp 592 ------- 1 0.0 4.0 59 204
r 5.573008 2 3 tcp 592 ------- 1 0.0 4.0 60 205
r 5.588795 2 3 tcp 592 ------- 1 0.0 4.0 61 206
r 5.604581 2 3 tcp 592 ------- 1 0.0 4.0 62 207
r 5.620368 2 3 tcp 592 ------- 1 0.0 4.0 63 208
+ 5.855141 2 3 tcp 592 ------- 1 0.0 4.0 64 215
- 5.855141 2 3 tcp 592 ------- 1 0.0 4.0 64 215
+ 5.857509 2 3 tcp 592 ------- 1 0.0 4.0 65 216
- 5.870928 2 3 tcp 592 ------- 1 0.0 4.0 65 216
+ 5.870928 2 3 tcp 592 ------- 1 0.0 4.0 66 217
- 5.886715 2 3 tcp 592 ------- 1 0.0 4.0 66 217
+ 5.886715 2 3 tcp 592 ------- 1 0.0 4.0 67 218
+ 5.889083 2 3 tcp 592 ------- 1 0.0 4.0 68 219
- 5.902501 2 3 tcp 592 ------- 1 0.0 4.0 67 218
+ 5.902501 2 3 tcp 592 ------- 1 0.0 4.0 69 220
- 5.918288 2 3 tcp 592 ------- 1 0.0 4.0 68 219
+ 5.918288 2 3 tcp 592 ------- 1 0.0 4.0 82 221
+ 5.920656 2 3 tcp 592 ------- 1 0.0 4.0 83 222
+ 5.923024 2 3 tcp 592 ------- 1 0.0 4.0 84 223
+ 5.925392 2 3 tcp 592 ------- 1 0.0 4.0 85 224
+ 5.92776 2 3 tcp 592 ------- 1 0.0 4.0 86 225
+ 5.930128 2 3 tcp 592 ------- 1 0.0 4.0 87 226
+ 5.932496 2 3 tcp 592 ------- 1 0.0 4.0 88 227
- 5.934075 2 3 tcp 592 ------- 1 0.0 4.0 69 220
+ 5.934864 2 3 tcp 592 ------- 1 0.0 4.0 89 228
+ 5.937232 2 3 tcp 592 ------- 1 0.0 4.0 90 229
- 5.949861 2 3 tcp 592 ------- 1 0.0 4.0 82 221
- 5.965648 2 3 tcp 592 ------- 1 0.0 4.0 83 222
- 5.981435 2 3 tcp 592 ------- 1 0.0 4.0 84 223
- 5.997221 2 3 tcp 592 ------- 1 0.0 4.0 85 224
- 6.013008 2 3 tcp 592 ------- 1 0.0 4.0 86 225
- 6.028795 2 3 tcp 592 ------- 1 0.0 4.0 87 226
- 6.044581 2 3 tcp 592 ------- 1 0.0 4.0 88 227
- 6.060368 2 3 tcp 592 ------- 1 0.0 4.0 89 228
r 6.070928 2 3 tcp 592 ------- 1 0.0 4.0 64 215
- 6.076155 2 3 tcp 592 ------- 1 0.0 4.0 90 229
r 6.086715 2 3 tcp 592 ------- 1 0.0 4.0 65 216
r 6.102501 2 3 tcp 592 ------- 1 0.0 4.0 66 217
r 6.118288 2 3 tcp 592 ------- 1 0.0 4.0 67 218
r 6.134075 2 3 tcp 592 ------- 1 0.0 4.0 68 219
r 6.149861 2 3 tcp 592 ------- 1 0.0 4.0 69 220
r 6.165648 2 3 tcp 592 ------- 1 0.0 4.0 82 221
r 6.181435 2 3 tcp 592 ------- 1 0.0 4.0 83 222
r 6.197221 2 3 tcp 592 ------- 1 0.0 4.0 84 223
r 6.213008 2 3 tcp 592 ------- 1 0.0 4.0 85 224
r 6.228795 2 3 tcp 592 ------- 1 0.0 4.0 86 225
r 6.244581 2 3 tcp 592 ------- 1 0.0 4.0 87 226
r 6.260368 2 3 tcp 592 ------- 1 0.0 4.0 88 227
r 6.276155 2 3 tcp 592 ------- 1 0.0 4.0 89 228
r 6.291941 2 3 tcp 592 ------- 1 0.0 4.0 90 229
+ 6.384635 2 3 tcp 592 ------- 1 0.0 4.0 91 245
- 6.384635 2 3 tcp 592 ------- 1 0.0 4.0 91 245
+ 6.479355 2 3 tcp 592 ------- 1 0.0 4.0 92 246
- 6.479355 2 3 tcp 592 ------- 1 0.0 4.0 92 246
+ 6.495141 2 3 tcp 592 ------- 1 0.0 4.0 93 247
- 6.495141 2 3 tcp 592 ------- 1 0.0 4.0 93 247
+ 6.510928 2 3 tcp 592 ------- 1 0.0 4.0 94 248
- 6.510928 2 3 tcp 592 ------- 1 0.0 4.0 94 248
+ 6.513296 2 3 tcp 592 ------- 1 0.0 4.0 95 249
- 6.526715 2 3 tcp 592 ------- 1 0.0 4.0 95 249
+ 6.526715 2 3 tcp 592 ------- 1 0.0 4.0 96 250
- 6.542501 2 3 tcp 592 ------- 1 0.0 4.0 96 250
+ 6.542501 2 3 tcp 592 ------- 1 0.0 4.0 97 251
+ 6.544869 2 3 tcp 592 ------- 1 0.0 4.0 98 252
- 6.558288 2 3 tcp 592 ------- 1 0.0 4.0 97 251
+ 6.558288 2 3 tcp 592 ------- 1 0.0 4.0 99 253
- 6.574075 2 3 tcp 592 ------- 1 0.0 4.0 98 252
+ 6.574075 2 3 tcp 592 ------- 1 0.0 4.0 100 254
+ 6.576443 2 3 tcp 592 ------- 1 0.0 4.0 101 255
- 6.589861 2 3 tcp 592 ------- 1 0.0 4.0 99 253
+ 6.589861 2 3 tcp 592 ------- 1 0.0 4.0 102 256
r 6.600421 2 3 tcp 592 ------- 1 0.0 4.0 91 245
- 6.605648 2 3 tcp 592 ------- 1 0.0 4.0 100 254
+ 6.605648 2 3 tcp 592 ------- 1 0.0 4.0 103 257
+ 6.608016 2 3 tcp 592 ------- 1 0.0 4.0 104 258
- 6.621435 2 3 tcp 592 ------- 1 0.0 4.0 101 255
- 6.637221 2 3 tcp 592 ------- 1 0.0 4.0 102 256
- 6.653008 2 3 tcp 592 ------- 1 0.0 4.0 103 257
- 6.668795 2 3 tcp 592 ------- 1 0.0 4.0 104 258
r 6.695141 2 3 tcp 592 ------- 1 0.0 4.0 92 246
r 6.710928 2 3 tcp 592 ------- 1 0.0 4.0 93 247
r 6.726715 2 3 tcp 592 ------- 1 0.0 4.0 94 248
r 6.742501 2 3 tcp 592 ------- 1 0.0 4.0 95 249
r 6.758288 2 3 tcp 592 ------- 1 0.0 4.0 96 250
r 6.774075 2 3 tcp 592 ------- 1 0.0 4.0 97 251
r 6.789861 2 3 tcp 592 ------- 1 0.0 4.0 98 252
r 6.805648 2 3 tcp 592 ------- 1 0.0 4.0 99 253
r 6.821435 2 3 tcp 592 ------- 1 0.0 4.0 100 254
r 6.837221 2 3 tcp 592 ------- 1 0.0 4.0 101 255
r 6.853008 2 3 tcp 592 ------- 1 0.0 4.0 102 256
r 6.868795 2 3 tcp 592 ------- 1 0.0 4.0 103 257
r 6.884581 2 3 tcp 592 ------- 1 0.0 4.0 104 258
+ 6.914128 2 3 tcp 592 ------- 1 0.0 4.0 105 270
- 6.914128 2 3 tcp 592 ------- 1 0.0 4.0 105 270
+ 7.008848 2 3 tcp 592 ------- 1 0.0 4.0 106 274
- 7.008848 2 3 tcp 592 ------- 1 0.0 4.0 106 274
+ 7.011216 2 3 tcp 592 ------- 1 0.0 4.0 107 275
- 7.024635 2 3 tcp 592 ------- 1 0.0 4.0 107 275
+ 7.024635 2 3 tcp 592 ------- 1 0.0 4.0 108 276
- 7.040421 2 3 tcp 592 ------- 1 0.0 4.0 108 276
+ 7.040421 2 3 tcp 592 ------- 1 0.0 4.0 109 277
+ 7.042789 2 3 tcp 592 ------- 1 0.0 4.0 110 278
- 7.056208 2 3 tcp 592 ------- 1 0.0 4.0 109 277
+ 7.056208 2 3 tcp 592 ------- 1 0.0 4.0 111 279
- 7.071995 2 3 tcp 592 ------- 1 0.0 4.0 110 278
+ 7.071995 2 3 tcp 592 ------- 1 0.0 4.0 112 280
+ 7.074363 2 3 tcp 592 ------- 1 0.0 4.0 113 281
- 7.087781 2 3 tcp 592 ------- 1 0.0 4.0 111 279
+ 7.087781 2 3 tcp 592 ------- 1 0.0 4.0 114 282
- 7.103568 2 3 tcp 592 ------- 1 0.0 4.0 112 280
+ 7.103568 2 3 tcp 592 ------- 1 0.0 4.0 115 283
+ 7.105936 2 3 tcp 592 ------- 1 0.0 4.0 116 284
- 7.119355 2 3 tcp 592 ------- 1 0.0 4.0 113 281
+ 7.119355 2 3 tcp 592 ------- 1 0.0 4.0 117 285
r 7.129915 2 3 tcp 592 ------- 1 0.0 4.0 105 270
- 7.135141 2 3 tcp 592 ------- 1 0.0 4.0 114 282
+ 7.135141 2 3 tcp 592 ------- 1 0.0 4.0 118 286
+ 7.137509 2 3 tcp 592 ------- 1 0.0 4.0 119 287
+ 7.139877 2 3 tcp 592 ------- 1 0.0 4.0 120 288
- 7.150928 2 3 tcp 592 ------- 1 0.0 4.0 115 283
+ 7.150928 2 3 tcp 592 ------- 1 0.0 4.0 121 289
- 7.166715 2 3 tcp 592 ------- 1 0.0 4.0 116 284
+ 7.166715 2 3 tcp 592 ------- 1 0.0 4.0 122 290
- 7.182501 2 3 tcp 592 ------- 1 0.0 4.0 117 285
- 7.198288 2 3 tcp 592 ------- 1 0.0 4.0 118 286
+ 7.198288 2 3 tcp 592 ------- 1 0.0 4.0 123 292
+ 7.200656 2 3 tcp 592 ------- 1 0.0 4.0 124 293
- 7.214075 2 3 tcp 592 ------- 1 0.0 4.0 119 287
r 7.224635 2 3 tcp 592 ------- 1 0.0 4.0 106 274
- 7.229861 2 3 tcp 592 ------- 1 0.0 4.0 120 288
r 7.240421 2 3 tcp 592 ------- 1 0.0 4.0 107 275
- 7.245648 2 3 tcp 592 ------- 1 0.0 4.0 121 289
r 7.256208 2 3 tcp 592 ------- 1 0.0 4.0 108 276
- 7.261435 2 3 tcp 592 ------- 1 0.0 4.0 122 290
r 7.271995 2 3 tcp 592 ------- 1 0.0 4.0 109 277
- 7.277221 2 3 tcp 592 ------- 1 0.0 4.0 123 292
r 7.287781 2 3 tcp 592 ------- 1 0.0 4.0 110 278
- 7.293008 2 3 tcp 592 ------- 1 0.0 4.0 124 293
r 7.303568 2 3 tcp 592 ------- 1 0.0 4.0 111 279
r 7.319355 2 3 tcp 592 ------- 1 0.0 4.0 112 280
r 7.335141 2 3 tcp 592 ------- 1 0.0 4.0 113 281
r 7.350928 2 3 tcp 592 ------- 1 0.0 4.0 114 282
r 7.366715 2 3 tcp 592 ------- 1 0.0 4.0 115 283
r 7.382501 2 3 tcp 592 ------- 1 0.0 4.0 116 284
r 7.398288 2 3 tcp 592 ------- 1 0.0 4.0 117 285
r 7.414075 2 3 tcp 592 ------- 1 0.0 4.0 118 286
r 7.429861 2 3 tcp 592 ------- 1 0.0 4.0 119 287
+ 7.443621 2 3 tcp 592 ------- 1 0.0 4.0 125 304
- 7.443621 2 3 tcp 592 ------- 1 0.0 4.0 125 304
r 7.445648 2 3 tcp 592 ------- 1 0.0 4.0 120 288
+ 7.445989 2 3 tcp 592 ------- 1 0.0 4.0 126 305
- 7.459408 2 3 tcp 592 ------- 1 0.0 4.0 126 305
r 7.461435 2 3 tcp 592 ------- 1 0.0 4.0 121 289
r 7.477221 2 3 tcp 592 ------- 1 0.0 4.0 122 290
r 7.493008 2 3 tcp 592 ------- 1 0.0 4.0 123 292
r 7.508795 2 3 tcp 592 ------- 1 0.0 4.0 124 293
+ 7.538341 2 3 tcp 592 ------- 1 0.0 4.0 127 312
- 7.538341 2 3 tcp 592 ------- 1 0.0 4.0 127 312
+ 7.540709 2 3 tcp 592 ------- 1 0.0 4.0 128 313
- 7.554128 2 3 tcp 592 ------- 1 0.0 4.0 128 313
+ 7.554128 2 3 tcp 592 ------- 1 0.0 4.0 129 315
+ 7.556496 2 3 tcp 592 ------- 1 0.0 4.0 130 316
- 7.569915 2 3 tcp 592 ------- 1 0.0 4.0 129 315
+ 7.569915 2 3 tcp 592 ------- 1 0.0 4.0 131 318
+ 7.572283 2 3 tcp 592 ------- 1 0.0 4.0 132 319
- 7.585701 2 3 tcp 592 ------- 1 0.0 4.0 130 316
+ 7.585701 2 3 tcp 592 ------- 1 0.0 4.0 133 321
+ 7.588069 2 3 tcp 592 ------- 1 0.0 4.0 134 322
- 7.601488 2 3 tcp 592 ------- 1 0.0 4.0 131 318
+ 7.601488 2 3 tcp 592 ------- 1 0.0 4.0 135 323
- 7.617275 2 3 tcp 592 ------- 1 0.0 4.0 132 319
+ 7.617275 2 3 tcp 592 ------- 1 0.0 4.0 136 324
- 7.633061 2 3 tcp 592 ------- 1 0.0 4.0 133 321
+ 7.633061 2 3 tcp 592 ------- 1 0.0 4.0 137 325
- 7.648848 2 3 tcp 592 ------- 1 0.0 4.0 134 322
+ 7.648848 2 3 tcp 592 ------- 1 0.0 4.0 138 326
r 7.659408 2 3 tcp 592 ------- 1 0.0 4.0 125 304
- 7.664635 2 3 tcp 592 ------- 1 0.0 4.0 135 323
+ 7.664635 2 3 tcp 592 ------- 1 0.0 4.0 139 327
r 7.675195 2 3 tcp 592 ------- 1 0.0 4.0 126 305
- 7.680421 2 3 tcp 592 ------- 1 0.0 4.0 136 324
+ 7.680421 2 3 tcp 592 ------- 1 0.0 4.0 140 328
- 7.696208 2 3 tcp 592 ------- 1 0.0 4.0 137 325
+ 7.696208 2 3 tcp 592 ------- 1 0.0 4.0 141 329
- 7.711995 2 3 tcp 592 ------- 1 0.0 4.0 138 326
+ 7.711995 2 3 tcp 592 ------- 1 0.0 4.0 142 330
- 7.727781 2 3 tcp 592 ------- 1 0.0 4.0 139 327
+ 7.727781 2 3 tcp 592 ------- 1 0.0 4.0 143 332
- 7.743568 2 3 tcp 592 ------- 1 0.0 4.0 140 328
+ 7.743568 2 3 tcp 592 ------- 1 0.0 4.0 144 334
r 7.754128 2 3 tcp 592 ------- 1 0.0 4.0 127 312
- 7.759355 2 3 tcp 592 ------- 1 0.0 4.0 141 329
+ 7.759355 2 3 tcp 592 ------- 1 0.0 4.0 145 335
r 7.769915 2 3 tcp 592 ------- 1 0.0 4.0 128 313
- 7.775141 2 3 tcp 592 ------- 1 0.0 4.0 142 330
+ 7.775141 2 3 tcp 592 ------- 1 0.0 4.0 146 336
r 7.785701 2 3 tcp 592 ------- 1 0.0 4.0 129 315
- 7.790928 2 3 tcp 592 ------- 1 0.0 4.0 143 332
+ 7.790928 2 3 tcp 592 ------- 1 0.0 4.0 147 337
r 7.801488 2 3 tcp 592 ------- 1 0.0 4.0 130 316
- 7.806715 2 3 tcp 592 ------- 1 0.0 4.0 144 334
+ 7.806715 2 3 tcp 592 ------- 1 0.0 4.0 148 338
r 7.817275 2 3 tcp 592 ------- 1 0.0 4.0 131 318
- 7.822501 2 3 tcp 592 ------- 1 0.0 4.0 145 335
+ 7.822501 2 3 tcp 592 ------- 1 0.0 4.0 149 340
r 7.833061 2 3 tcp 592 ------- 1 0.0 4.0 132 319
- 7.838288 2 3 tcp 592 ------- 1 0.0 4.0 146 336
r 7.848848 2 3 tcp 592 ------- 1 0.0 4.0 133 321
- 7.854075 2 3 tcp 592 ------- 1 0.0 4.0 147 337
r 7.864635 2 3 tcp 592 ------- 1 0.0 4.0 134 322
- 7.869861 2 3 tcp 592 ------- 1 0.0 4.0 148 338
r 7.880421 2 3 tcp 592 ------- 1 0.0 4.0 135 323
- 7.885648 2 3 tcp 592 ------- 1 0.0 4.0 149 340
r 7.896208 2 3 tcp 592 ------- 1 0.0 4.0 136 324
r 7.911995 2 3 tcp 592 ------- 1 0.0 4.0 137 325
r 7.927781 2 3 tcp 592 ------- 1 0.0 4.0 138 326
r 7.943568 2 3 tcp 592 ------- 1 0.0 4.0 139 327
r 7.959355 2 3 tcp 592 ------- 1 0.0 4.0 140 328
+ 7.973115 2 3 tcp 592 ------- 1 0.0 4.0 150 350
- 7.973115 2 3 tcp 592 ------- 1 0.0 4.0 150 350
r 7.975141 2 3 tcp 592 ------- 1 0.0 4.0 141 329
+ 7.988901 2 3 tcp 592 ------- 1 0.0 4.0 151 352
- 7.988901 2 3 tcp 592 ------- 1 0.0 4.0 151 352
r 7.990928 2 3 tcp 592 ------- 1 0.0 4.0 142 330
r 8.006715 2 3 tcp 592 ------- 1 0.0 4.0 143 332
r 8.022501 2 3 tcp 592 ------- 1 0.0 4.0 144 334
r 8.038288 2 3 tcp 592 ------- 1 0.0 4.0 145 335
r 8.054075 2 3 tcp 592 ------- 1 0.0 4.0 146 336
+ 8.067835 2 3 tcp 592 ------- 1 0.0 4.0 152 358
- 8.067835 2 3 tcp 592 ------- 1 0.0 4.0 152 358
r 8.069861 2 3 tcp 592 ------- 1 0.0 4.0 147 337
+ 8.083621 2 3 tcp 592 ------- 1 0.0 4.0 153 360
- 8.083621 2 3 tcp 592 ------- 1 0.0 4.0 153 360
r 8.085648 2 3 tcp 592 ------- 1 0.0 4.0 148 338
+ 8.099408 2 3 tcp 592 ------- 1 0.0 4.0 154 362
- 8.099408 2 3 tcp 592 ------- 1 0.0 4.0 154 362
r 8.101435 2 3 tcp 592 ------- 1 0.0 4.0 149 340
+ 8.115195 2 3 tcp 592 ------- 1 0.0 4.0 155 364
- 8.115195 2 3 tcp 592 ------- 1 0.0 4.0 155 364
+ 8.130981 2 3 tcp 592 ------- 1 0.0 4.0 156 366
- 8.130981 2 3 tcp 592 ------- 1 0.0 4.0 156 366
+ 8.146768 2 3 tcp 592 ------- 1 0.0 4.0 157 368
- 8.146768 2 3 tcp 592 ------- 1 0.0 4.0 157 368
+ 8.162555 2 3 tcp 592 ------- 1 0.0 4.0 158 370
- 8.162555 2 3 tcp 592 ------- 1 0.0 4.0 158 370
+ 8.178341 2 3 tcp 592 ------- 1 0.0 4.0 159 372
- 8.178341 2 3 tcp 592 ------- 1 0.0 4.0 159 372
r 8.188901 2 3 tcp 592 ------- 1 0.0 4.0 150 350
+ 8.194128 2 3 tcp 592 ------- 1 0.0 4.0 160 373
- 8.194128 2 3 tcp 592 ------- 1 0.0 4.0 160 373
+ 8.196496 2 3 tcp 592 ------- 1 0.0 4.0 161 374
r 8.204688 2 3 tcp 592 ------- 1 0.0 4.0 151 352
- 8.209915 2 3 tcp 592 ------- 1 0.0 4.0 161 374
+ 8.209915 2 3 tcp 592 ------- 1 0.0 4.0 162 375
- 8.225701 2 3 tcp 592 ------- 1 0.0 4.0 162 375
+ 8.225701 2 3 tcp 592 ------- 1 0.0 4.0 163 376
- 8.241488 2 3 tcp 592 ------- 1 0.0 4.0 163 376
+ 8.241488 2 3 tcp 592 ------- 1 0.0 4.0 164 377
- 8.257275 2 3 tcp 592 ------- 1 0.0 4.0 164 377
+ 8.257275 2 3 tcp 592 ------- 1 0.0 4.0 165 379
- 8.273061 2 3 tcp 592 ------- 1 0.0 4.0 165 379
+ 8.273061 2 3 tcp 592 ------- 1 0.0 4.0 166 381
r 8.283621 2 3 tcp 592 ------- 1 0.0 4.0 152 358
- 8.288848 2 3 tcp 592 ------- 1 0.0 4.0 166 381
+ 8.288848 2 3 tcp 592 ------- 1 0.0 4.0 167 382
r 8.299408 2 3 tcp 592 ------- 1 0.0 4.0 153 360
- 8.304635 2 3 tcp 592 ------- 1 0.0 4.0 167 382
+ 8.304635 2 3 tcp 592 ------- 1 0.0 4.0 168 383
r 8.315195 2 3 tcp 592 ------- 1 0.0 4.0 154 362
- 8.320421 2 3 tcp 592 ------- 1 0.0 4.0 168 383
+ 8.320421 2 3 tcp 592 ------- 1 0.0 4.0 169 384
r 8.330981 2 3 tcp 592 ------- 1 0.0 4.0 155 364
- 8.336208 2 3 tcp 592 ------- 1 0.0 4.0 169 384
+ 8.336208 2 3 tcp 592 ------- 1 0.0 4.0 170 385
r 8.346768 2 3 tcp 592 ------- 1 0.0 4.0 156 366
- 8.351995 2 3 tcp 592 ------- 1 0.0 4.0 170 385
+ 8.351995 2 3 tcp 592 ------- 1 0.0 4.0 171 387
r 8.362555 2 3 tcp 592 ------- 1 0.0 4.0 157 368
- 8.367781 2 3 tcp 592 ------- 1 0.0 4.0 171 387
+ 8.367781 2 3 tcp 592 ------- 1 0.0 4.0 172 389
r 8.378341 2 3 tcp 592 ------- 1 0.0 4.0 158 370
- 8.383568 2 3 tcp 592 ------- 1 0.0 4.0 172 389
+ 8.383568 2 3 tcp 592 ------- 1 0.0 4.0 173 391
r 8.394128 2 3 tcp 592 ------- 1 0.0 4.0 159 372
- 8.399355 2 3 tcp 592 ------- 1 0.0 4.0 173 391
+ 8.399355 2 3 tcp 592 ------- 1 0.0 4.0 174 393
r 8.409915 2 3 tcp 592 ------- 1 0.0 4.0 160 373
- 8.415141 2 3 tcp 592 ------- 1 0.0 4.0 174 393
+ 8.415141 2 3 tcp 592 ------- 1 0.0 4.0 175 395
r 8.425701 2 3 tcp 592 ------- 1 0.0 4.0 161 374
- 8.430928 2 3 tcp 592 ------- 1 0.0 4.0 175 395
r 8.441488 2 3 tcp 592 ------- 1 0.0 4.0 162 375
r 8.457275 2 3 tcp 592 ------- 1 0.0 4.0 163 376
r 8.473061 2 3 tcp 592 ------- 1 0.0 4.0 164 377
r 8.488848 2 3 tcp 592 ------- 1 0.0 4.0 165 379
+ 8.502608 2 3 tcp 592 ------- 1 0.0 4.0 176 401
- 8.502608 2 3 tcp 592 ------- 1 0.0 4.0 176 401
r 8.504635 2 3 tcp 592 ------- 1 0.0 4.0 166 381
+ 8.518395 2 3 tcp 592 ------- 1 0.0 4.0 177 403