+ 0.11016 2 3 tcp 40 ------- 1 0.0 4.0 0 0
- 0.11016 2 3 tcp 40 ------- 1 0.0 4.0 0 0
r 0.311227 2 3 tcp 40 ------- 1 0.0 4.0 0 0
+ 0.616101 2 3 tcp 592 ------- 1 0.0 4.0 1 2
- 0.616101 2 3 tcp 592 ------- 1 0.0 4.0 1 2
+ 0.618469 2 3 tcp 592 ------- 1 0.0 4.0 2 3
- 0.631888 2 3 tcp 592 ------- 1 0.0 4.0 2 3
r 0.831888 2 3 tcp 592 ------- 1 0.0 4.0 1 2
r 0.847675 2 3 tcp 592 ------- 1 0.0 4.0 2 3
+ 1.145595 2 3 tcp 592 ------- 1 0.0 4.0 3 6
- 1.145595 2 3 tcp 592 ------- 1 0.0 4.0 3 6
+ 1.147963 2 3 tcp 592 ------- 1 0.0 4.0 4 7
- 1.161381 2 3 tcp 592 ------- 1 0.0 4.0 4 7
+ 1.161381 2 3 tcp 592 ------- 1 0.0 4.0 5 8
+ 1.163749 2 3 tcp 592 ------- 1 0.0 4.0 6 9
- 1.177168 2 3 tcp 592 ------- 1 0.0 4.0 5 8
- 1.192955 2 3 tcp 592 ------- 1 0.0 4.0 6 9
r 1.361381 2 3 tcp 592 ------- 1 0.0 4.0 3 6
r 1.377168 2 3 tcp 592 ------- 1 0.0 4.0 4 7
r 1.392955 2 3 tcp 592 ------- 1 0.0 4.0 5 8
r 1.408741 2 3 tcp 592 ------- 1 0.0 4.0 6 9
+ 1.675088 2 3 tcp 592 ------- 1 0.0 4.0 7 14
- 1.675088 2 3 tcp 592 ------- 1 0.0 4.0 7 14
+ 1.677456 2 3 tcp 592 ------- 1 0.0 4.0 8 15
- 1.690875 2 3 tcp 592 ------- 1 0.0 4.0 8 15
+ 1.690875 2 3 tcp 592 ------- 1 0.0 4.0 9 16
+ 1.693243 2 3 tcp 592 ------- 1 0.0 4.0 10 17
- 1.706661 2 3 tcp 592 ------- 1 0.0 4.0 9 16
+ 1.706661 2 3 tcp 592 ------- 1 0.0 4.0 11 18
+ 1.709029 2 3 tcp 592 ------- 1 0.0 4.0 12 19
- 1.722448 2 3 tcp 592 ------- 1 0.0 4.0 10 17
+ 1.722448 2 3 tcp 592 ------- 1 0.0 4.0 13 20
+ 1.724816 2 3 tcp 592 ------- 1 0.0 4.0 14 21
- 1.738235 2 3 tcp 592 ------- 1 0.0 4.0 11 18
- 1.754021 2 3 tcp 592 ------- 1 0.0 4.0 12 19
- 1.769808 2 3 tcp 592 ------- 1 0.0 4.0 13 20
- 1.785595 2 3 tcp 592 ------- 1 0.0 4.0 14 21
r 1.890875 2 3 tcp 592 ------- 1 0.0 4.0 7 14
r 1.906661 2 3 tcp 592 ------- 1 0.0 4.0 8 15
r 1.922448 2 3 tcp 592 ------- 1 0.0 4.0 9 16
r 1.938235 2 3 tcp 592 ------- 1 0.0 4.0 10 17
r 1.954021 2 3 tcp 592 ------- 1 0.0 4.0 11 18
r 1.969808 2 3 tcp 592 ------- 1 0.0 4.0 12 19
r 1.985595 2 3 tcp 592 ------- 1 0.0 4.0 13 20
r 2.001381 2 3 tcp 592 ------- 1 0.0 4.0 14 21
+ 2.204581 2 3 tcp 592 ------- 1 0.0 4.0 15 30
- 2.204581 2 3 tcp 592 ------- 1 0.0 4.0 15 30
+ 2.206949 2 3 tcp 592 ------- 1 0.0 4.0 16 31
- 2.220368 2 3 tcp 592 ------- 1 0.0 4.0 16 31
+ 2.220368 2 3 tcp 592 ------- 1 0.0 4.0 17 32
+ 2.222736 2 3 tcp 592 ------- 1 0.0 4.0 18 33
- 2.236155 2 3 tcp 592 ------- 1 0.0 4.0 17 32
+ 2.236155 2 3 tcp 592 ------- 1 0.0 4.0 19 34
+ 2.238523 2 3 tcp 592 ------- 1 0.0 4.0 20 35
- 2.251941 2 3 tcp 592 ------- 1 0.0 4.0 18 33
+ 2.251941 2 3 tcp 592 ------- 1 0.0 4.0 21 36
+ 2.254309 2 3 tcp 592 ------- 1 0.0 4.0 22 37
- 2.267728 2 3 tcp 592 ------- 1 0.0 4.0 19 34
+ 2.267728 2 3 tcp 592 ------- 1 0.0 4.0 23 38
+ 2.270096 2 3 tcp 592 ------- 1 0.0 4.0 24 39
- 2.283515 2 3 tcp 592 ------- 1 0.0 4.0 20 35
+ 2.283515 2 3 tcp 592 ------- 1 0.0 4.0 25 40
+ 2.285883 2 3 tcp 592 ------- 1 0.0 4.0 26 41
- 2.299301 2 3 tcp 592 ------- 1 0.0 4.0 21 36
+ 2.299301 2 3 tcp 592 ------- 1 0.0 4.0 27 42
+ 2.301669 2 3 tcp 592 ------- 1 0.0 4.0 28 43
- 2.315088 2 3 tcp 592 ------- 1 0.0 4.0 22 37
+ 2.315088 2 3 tcp 592 ------- 1 0.0 4.0 29 44
+ 2.317456 2 3 tcp 592 ------- 1 0.0 4.0 30 45
- 2.330875 2 3 tcp 592 ------- 1 0.0 4.0 23 38
- 2.346661 2 3 tcp 592 ------- 1 0.0 4.0 24 39
- 2.362448 2 3 tcp 592 ------- 1 0.0 4.0 25 40
- 2.378235 2 3 tcp 592 ------- 1 0.0 4.0 26 41
- 2.394021 2 3 tcp 592 ------- 1 0.0 4.0 27 42
- 2.409808 2 3 tcp 592 ------- 1 0.0 4.0 28 43
r 2.420368 2 3 tcp 592 ------- 1 0.0 4.0 15 30
- 2.425595 2 3 tcp 592 ------- 1 0.0 4.0 29 44
r 2.436155 2 3 tcp 592 ------- 1 0.0 4.0 16 31
- 2.441381 2 3 tcp 592 ------- 1 0.0 4.0 30 45
r 2.451941 2 3 tcp 592 ------- 1 0.0 4.0 17 32
r 2.467728 2 3 tcp 592 ------- 1 0.0 4.0 18 33
r 2.483515 2 3 tcp 592 ------- 1 0.0 4.0 19 34
r 2.499301 2 3 tcp 592 ------- 1 0.0 4.0 20 35
r 2.515088 2 3 tcp 592 ------- 1 0.0 4.0 21 36
r 2.530875 2 3 tcp 592 ------- 1 0.0 4.0 22 37
r 2.546661 2 3 tcp 592 ------- 1 0.0 4.0 23 38
r 2.562448 2 3 tcp 592 ------- 1 0.0 4.0 24 39
r 2.578235 2 3 tcp 592 ------- 1 0.0 4.0 25 40
r 2.594021 2 3 tcp 592 ------- 1 0.0 4.0 26 41
r 2.609808 2 3 tcp 592 ------- 1 0.0 4.0 27 42
r 2.625595 2 3 tcp 592 ------- 1 0.0 4.0 28 43
r 2.641381 2 3 tcp 592 ------- 1 0.0 4.0 29 44
r 2.657168 2 3 tcp 592 ------- 1 0.0 4.0 30 45
+ 2.734075 2 3 tcp 592 ------- 1 0.0 4.0 31 62
- 2.734075 2 3 tcp 592 ------- 1 0.0 4.0 31 62
+ 2.736443 2 3 tcp 592 ------- 1 0.0 4.0 32 63
- 2.749861 2 3 tcp 592 ------- 1 0.0 4.0 32 63
+ 2.749861 2 3 tcp 592 ------- 1 0.0 4.0 33 64
+ 2.752229 2 3 tcp 592 ------- 1 0.0 4.0 34 65
- 2.765648 2 3 tcp 592 ------- 1 0.0 4.0 33 64
+ 2.765648 2 3 tcp 592 ------- 1 0.0 4.0 35 66
+ 2.768016 2 3 tcp 592 ------- 1 0.0 4.0 36 67
- 2.781435 2 3 tcp 592 ------- 1 0.0 4.0 34 65
+ 2.781435 2 3 tcp 592 ------- 1 0.0 4.0 37 68
+ 2.783803 2 3 tcp 592 ------- 1 0.0 4.0 38 69
- 2.797221 2 3 tcp 592 ------- 1 0.0 4.0 35 66
+ 2.797221 2 3 tcp 592 ------- 1 0.0 4.0 39 70
+ 2.799589 2 3 tcp 592 ------- 1 0.0 4.0 40 71
- 2.813008 2 3 tcp 592 ------- 1 0.0 4.0 36 67
+ 2.813008 2 3 tcp 592 ------- 1 0.0 4.0 41 72
+ 2.815376 2 3 tcp 592 ------- 1 0.0 4.0 42 73
- 2.828795 2 3 tcp 592 ------- 1 0.0 4.0 37 68
+ 2.828795 2 3 tcp 592 ------- 1 0.0 4.0 43 74
+ 2.831163 2 3 tcp 592 ------- 1 0.0 4.0 44 75
- 2.844581 2 3 tcp 592 ------- 1 0.0 4.0 38 69
+ 2.844581 2 3 tcp 592 ------- 1 0.0 4.0 45 76
+ 2.846949 2 3 tcp 592 ------- 1 0.0 4.0 46 77
- 2.860368 2 3 tcp 592 ------- 1 0.0 4.0 39 70
+ 2.860368 2 3 tcp 592 ------- 1 0.0 4.0 47 78
+ 2.862736 2 3 tcp 592 ------- 1 0.0 4.0 48 79
- 2.876155 2 3 tcp 592 ------- 1 0.0 4.0 40 71
+ 2.876155 2 3 tcp 592 ------- 1 0.0 4.0 49 80
+ 2.878523 2 3 tcp 592 ------- 1 0.0 4.0 50 81
d 2.878523 2 3 tcp 592 ------- 1 0.0 4.0 50 81
- 2.891941 2 3 tcp 592 ------- 1 0.0 4.0 41 72
+ 2.891941 2 3 tcp 592 ------- 1 0.0 4.0 51 82
+ 2.894309 2 3 tcp 592 ------- 1 0.0 4.0 52 83
d 2.894309 2 3 tcp 592 ------- 1 0.0 4.0 52 83
- 2.907728 2 3 tcp 592 ------- 1 0.0 4.0 42 73
+ 2.907728 2 3 tcp 592 ------- 1 0.0 4.0 53 84
+ 2.910096 2 3 tcp 592 ------- 1 0.0 4.0 54 85
d 2.910096 2 3 tcp 592 ------- 1 0.0 4.0 54 85
- 2.923515 2 3 tcp 592 ------- 1 0.0 4.0 43 74
+ 2.923515 2 3 tcp 592 ------- 1 0.0 4.0 55 86
+ 2.925883 2 3 tcp 592 ------- 1 0.0 4.0 56 87
d 2.925883 2 3 tcp 592 ------- 1 0.0 4.0 56 87
- 2.939301 2 3 tcp 592 ------- 1 0.0 4.0 44 75
+ 2.939301 2 3 tcp 592 ------- 1 0.0 4.0 57 88
+ 2.941669 2 3 tcp 592 ------- 1 0.0 4.0 58 89
d 2.941669 2 3 tcp 592 ------- 1 0.0 4.0 58 89
r 2.949861 2 3 tcp 592 ------- 1 0.0 4.0 31 62
- 2.955088 2 3 tcp 592 ------- 1 0.0 4.0 45 76
+ 2.955088 2 3 tcp 592 ------- 1 0.0 4.0 59 90
+ 2.957456 2 3 tcp 592 ------- 1 0.0 4.0 60 91
d 2.957456 2 3 tcp 592 ------- 1 0.0 4.0 60 91
r 2.965648 2 3 tcp 592 ------- 1 0.0 4.0 32 63
- 2.970875 2 3 tcp 592 ------- 1 0.0 4.0 46 77
+ 2.970875 2 3 tcp 592 ------- 1 0.0 4.0 61 92
+ 2.973243 2 3 tcp 592 ------- 1 0.0 4.0 62 93
d 2.973243 2 3 tcp 592 ------- 1 0.0 4.0 62 93
r 2.981435 2 3 tcp 592 ------- 1 0.0 4.0 33 64
- 2.986661 2 3 tcp 592 ------- 1 0.0 4.0 47 78
r 2.997221 2 3 tcp 592 ------- 1 0.0 4.0 34 65
- 3.002448 2 3 tcp 592 ------- 1 0.0 4.0 48 79
r 3.013008 2 3 tcp 592 ------- 1 0.0 4.0 35 66
- 3.018235 2 3 tcp 592 ------- 1 0.0 4.0 49 80
r 3.028795 2 3 tcp 592 ------- 1 0.0 4.0 36 67
- 3.034021 2 3 tcp 592 ------- 1 0.0 4.0 51 82
r 3.044581 2 3 tcp 592 ------- 1 0.0 4.0 37 68
- 3.049808 2 3 tcp 592 ------- 1 0.0 4.0 53 84
r 3.060368 2 3 tcp 592 ------- 1 0.0 4.0 38 69
- 3.065595 2 3 tcp 592 ------- 1 0.0 4.0 55 86
r 3.076155 2 3 tcp 592 ------- 1 0.0 4.0 39 70
- 3.081381 2 3 tcp 592 ------- 1 0.0 4.0 57 88
r 3.091941 2 3 tcp 592 ------- 1 0.0 4.0 40 71
- 3.097168 2 3 tcp 592 ------- 1 0.0 4.0 59 90
r 3.107728 2 3 tcp 592 ------- 1 0.0 4.0 41 72
- 3.112955 2 3 tcp 592 ------- 1 0.0 4.0 61 92
r 3.123515 2 3 tcp 592 ------- 1 0.0 4.0 42 73
r 3.139301 2 3 tcp 592 ------- 1 0.0 4.0 43 74
r 3.155088 2 3 tcp 592 ------- 1 0.0 4.0 44 75
r 3.170875 2 3 tcp 592 ------- 1 0.0 4.0 45 76
r 3.186661 2 3 tcp 592 ------- 1 0.0 4.0 46 77
r 3.202448 2 3 tcp 592 ------- 1 0.0 4.0 47 78
r 3.218235 2 3 tcp 592 ------- 1 0.0 4.0 48 79
r 3.234021 2 3 tcp 592 ------- 1 0.0 4.0 49 80
r 3.249808 2 3 tcp 592 ------- 1 0.0 4.0 51 82
+ 3.263568 2 3 tcp 592 ------- 1 0.0 4.0 63 110
- 3.263568 2 3 tcp 592 ------- 1 0.0 4.0 63 110
r 3.265595 2 3 tcp 592 ------- 1 0.0 4.0 53 84
+ 3.265936 2 3 tcp 592 ------- 1 0.0 4.0 64 111
- 3.279355 2 3 tcp 592 ------- 1 0.0 4.0 64 111
+ 3.279355 2 3 tcp 592 ------- 1 0.0 4.0 65 113
r 3.281381 2 3 tcp 592 ------- 1 0.0 4.0 55 86
+ 3.281723 2 3 tcp 592 ------- 1 0.0 4.0 66 114
- 3.295141 2 3 tcp 592 ------- 1 0.0 4.0 65 113
+ 3.295141 2 3 tcp 592 ------- 1 0.0 4.0 67 116
r 3.297168 2 3 tcp 592 ------- 1 0.0 4.0 57 88
+ 3.297509 2 3 tcp 592 ------- 1 0.0 4.0 68 117
- 3.310928 2 3 tcp 592 ------- 1 0.0 4.0 66 114
+ 3.310928 2 3 tcp 592 ------- 1 0.0 4.0 69 119
r 3.312955 2 3 tcp 592 ------- 1 0.0 4.0 59 90
+ 3.313296 2 3 tcp 592 ------- 1 0.0 4.0 70 120
- 3.326715 2 3 tcp 592 ------- 1 0.0 4.0 67 116
+ 3.326715 2 3 tcp 592 ------- 1 0.0 4.0 71 122
r 3.328741 2 3 tcp 592 ------- 1 0.0 4.0 61 92
+ 3.329083 2 3 tcp 592 ------- 1 0.0 4.0 72 123
- 3.342501 2 3 tcp 592 ------- 1 0.0 4.0 68 117
+ 3.342501 2 3 tcp 592 ------- 1 0.0 4.0 73 125
+ 3.344869 2 3 tcp 592 ------- 1 0.0 4.0 74 126
- 3.358288 2 3 tcp 592 ------- 1 0.0 4.0 69 119
+ 3.358288 2 3 tcp 592 ------- 1 0.0 4.0 75 128
+ 3.360656 2 3 tcp 592 ------- 1 0.0 4.0 76 129
- 3.374075 2 3 tcp 592 ------- 1 0.0 4.0 70 120
+ 3.374075 2 3 tcp 592 ------- 1 0.0 4.0 77 131
+ 3.376443 2 3 tcp 592 ------- 1 0.0 4.0 78 132
- 3.389861 2 3 tcp 592 ------- 1 0.0 4.0 71 122
+ 3.389861 2 3 tcp 592 ------- 1 0.0 4.0 79 134
+ 3.392229 2 3 tcp 592 ------- 1 0.0 4.0 80 135
- 3.405648 2 3 tcp 592 ------- 1 0.0 4.0 72 123
+ 3.405648 2 3 tcp 592 ------- 1 0.0 4.0 81 137
+ 3.408016 2 3 tcp 592 ------- 1 0.0 4.0 82 138
d 3.408016 2 3 tcp 592 ------- 1 0.0 4.0 82 138
- 3.421435 2 3 tcp 592 ------- 1 0.0 4.0 73 125
+ 3.421435 2 3 tcp 592 ------- 1 0.0 4.0 83 139
+ 3.423803 2 3 tcp 592 ------- 1 0.0 4.0 84 140
d 3.423803 2 3 tcp 592 ------- 1 0.0 4.0 84 140
- 3.437221 2 3 tcp 592 ------- 1 0.0 4.0 74 126
+ 3.437221 2 3 tcp 592 ------- 1 0.0 4.0 85 141
+ 3.439589 2 3 tcp 592 ------- 1 0.0 4.0 86 142
d 3.439589 2 3 tcp 592 ------- 1 0.0 4.0 86 142
- 3.453008 2 3 tcp 592 ------- 1 0.0 4.0 75 128
+ 3.453008 2 3 tcp 592 ------- 1 0.0 4.0 87 143
+ 3.455376 2 3 tcp 592 ------- 1 0.0 4.0 88 144
d 3.455376 2 3 tcp 592 ------- 1 0.0 4.0 88 144
- 3.468795 2 3 tcp 592 ------- 1 0.0 4.0 76 129
+ 3.468795 2 3 tcp 592 ------- 1 0.0 4.0 89 145
+ 3.471163 2 3 tcp 592 ------- 1 0.0 4.0 90 146
d 3.471163 2 3 tcp 592 ------- 1 0.0 4.0 90 146
r 3.479355 2 3 tcp 592 ------- 1 0.0 4.0 63 110
- 3.484581 2 3 tcp 592 ------- 1 0.0 4.0 77 131
+ 3.484581 2 3 tcp 592 ------- 1 0.0 4.0 91 147
+ 3.486949 2 3 tcp 592 ------- 1 0.0 4.0 92 148
d 3.486949 2 3 tcp 592 ------- 1 0.0 4.0 92 148
r 3.495141 2 3 tcp 592 ------- 1 0.0 4.0 64 111
- 3.500368 2 3 tcp 592 ------- 1 0.0 4.0 78 132
+ 3.500368 2 3 tcp 592 ------- 1 0.0 4.0 93 149
+ 3.502736 2 3 tcp 592 ------- 1 0.0 4.0 94 150
d 3.502736 2 3 tcp 592 ------- 1 0.0 4.0 94 150
r 3.510928 2 3 tcp 592 ------- 1 0.0 4.0 65 113
- 3.516155 2 3 tcp 592 ------- 1 0.0 4.0 79 134
+ 3.516155 2 3 tcp 592 ------- 1 0.0 4.0 95 151
+ 3.518523 2 3 tcp 592 ------- 1 0.0 4.0 96 152
d 3.518523 2 3 tcp 592 ------- 1 0.0 4.0 96 152
r 3.526715 2 3 tcp 592 ------- 1 0.0 4.0 66 114
- 3.531941 2 3 tcp 592 ------- 1 0.0 4.0 80 135
+ 3.531941 2 3 tcp 592 ------- 1 0.0 4.0 97 153
+ 3.534309 2 3 tcp 592 ------- 1 0.0 4.0 98 154
d 3.534309 2 3 tcp 592 ------- 1 0.0 4.0 98 154
r 3.542501 2 3 tcp 592 ------- 1 0.0 4.0 67 116
- 3.547728 2 3 tcp 592 ------- 1 0.0 4.0 81 137
+ 3.547728 2 3 tcp 592 ------- 1 0.0 4.0 99 156
+ 3.550096 2 3 tcp 592 ------- 1 0.0 4.0 100 157
d 3.550096 2 3 tcp 592 ------- 1 0.0 4.0 100 157
r 3.558288 2 3 tcp 592 ------- 1 0.0 4.0 68 117
- 3.563515 2 3 tcp 592 ------- 1 0.0 4.0 83 139
+ 3.563515 2 3 tcp 592 ------- 1 0.0 4.0 101 159
r 3.574075 2 3 tcp 592 ------- 1 0.0 4.0 69 119
- 3.579301 2 3 tcp 592 ------- 1 0.0 4.0 85 141
+ 3.579301 2 3 tcp 592 ------- 1 0.0 4.0 102 161
r 3.589861 2 3 tcp 592 ------- 1 0.0 4.0 70 120
- 3.595088 2 3 tcp 592 ------- 1 0.0 4.0 87 143
+ 3.595088 2 3 tcp 592 ---A--- 1 0.0 4.0 50 163
r 3.605648 2 3 tcp 592 ------- 1 0.0 4.0 71 122
- 3.610875 2 3 tcp 592 ------- 1 0.0 4.0 89 145
r 3.621435 2 3 tcp 592 ------- 1 0.0 4.0 72 123
- 3.626661 2 3 tcp 592 ------- 1 0.0 4.0 91 147
r 3.637221 2 3 tcp 592 ------- 1 0.0 4.0 73 125
- 3.642448 2 3 tcp 592 ------- 1 0.0 4.0 93 149
r 3.653008 2 3 tcp 592 ------- 1 0.0 4.0 74 126
- 3.658235 2 3 tcp 592 ------- 1 0.0 4.0 95 151
r 3.668795 2 3 tcp 592 ------- 1 0.0 4.0 75 128
- 3.674021 2 3 tcp 592 ------- 1 0.0 4.0 97 153
r 3.684581 2 3 tcp 592 ------- 1 0.0 4.0 76 129
- 3.689808 2 3 tcp 592 ------- 1 0.0 4.0 99 156
r 3.700368 2 3 tcp 592 ------- 1 0.0 4.0 77 131
- 3.705595 2 3 tcp 592 ------- 1 0.0 4.0 101 159
r 3.716155 2 3 tcp 592 ------- 1 0.0 4.0 78 132
- 3.721381 2 3 tcp 592 ------- 1 0.0 4.0 102 161
r 3.731941 2 3 tcp 592 ------- 1 0.0 4.0 79 134
- 3.737168 2 3 tcp 592 ---A--- 1 0.0 4.0 50 163
r 3.747728 2 3 tcp 592 ------- 1 0.0 4.0 80 135
r 3.763515 2 3 tcp 592 ------- 1 0.0 4.0 81 137
r 3.779301 2 3 tcp 592 ------- 1 0.0 4.0 83 139
r 3.795088 2 3 tcp 592 ------- 1 0.0 4.0 85 141
r 3.810875 2 3 tcp 592 ------- 1 0.0 4.0 87 143
r 3.826661 2 3 tcp 592 ------- 1 0.0 4.0 89 145
r 3.842448 2 3 tcp 592 ------- 1 0.0 4.0 91 147
r 3.858235 2 3 tcp 592 ------- 1 0.0 4.0 93 149
r 3.874021 2 3 tcp 592 ------- 1 0.0 4.0 95 151
r 3.889808 2 3 tcp 592 ------- 1 0.0 4.0 97 153
r 3.905595 2 3 tcp 592 ------- 1 0.0 4.0 99 156
r 3.921381 2 3 tcp 592 ------- 1 0.0 4.0 101 159
r 3.937168 2 3 tcp 592 ------- 1 0.0 4.0 102 161
r 3.952955 2 3 tcp 592 ---A--- 1 0.0 4.0 50 163
+ 4.140368 2 3 tcp 592 ------- 1 0.0 4.0 103 191
- 4.140368 2 3 tcp 592 ------- 1 0.0 4.0 103 191
+ 4.156155 2 3 tcp 592 ------- 1 0.0 4.0 104 192
- 4.156155 2 3 tcp 592 ------- 1 0.0 4.0 104 192
+ 4.171941 2 3 tcp 592 ------- 1 0.0 4.0 105 193
- 4.171941 2 3 tcp 592 ------- 1 0.0 4.0 105 193
+ 4.187728 2 3 tcp 592 ------- 1 0.0 4.0 106 194
- 4.187728 2 3 tcp 592 ------- 1 0.0 4.0 106 194
+ 4.203515 2 3 tcp 592 ------- 1 0.0 4.0 107 195
- 4.203515 2 3 tcp 592 ------- 1 0.0 4.0 107 195
+ 4.219301 2 3 tcp 592 ------- 1 0.0 4.0 108 196
- 4.219301 2 3 tcp 592 ------- 1 0.0 4.0 108 196
+ 4.235088 2 3 tcp 592 ------- 1 0.0 4.0 109 197
- 4.235088 2 3 tcp 592 ------- 1 0.0 4.0 109 197
+ 4.250875 2 3 tcp 592 ------- 1 0.0 4.0 110 198
- 4.250875 2 3 tcp 592 ------- 1 0.0 4.0 110 198
+ 4.266661 2 3 tcp 592 ------- 1 0.0 4.0 52 199
- 4.266661 2 3 tcp 592 ------- 1 0.0 4.0 52 199
+ 4.269029 2 3 tcp 592 ------- 1 0.0 4.0 111 200
- 4.282448 2 3 tcp 592 ------- 1 0.0 4.0 111 200
r 4.356155 2 3 tcp 592 ------- 1 0.0 4.0 103 191
r 4.371941 2 3 tcp 592 ------- 1 0.0 4.0 104 192
r 4.387728 2 3 tcp 592 ------- 1 0.0 4.0 105 193
r 4.403515 2 3 tcp 592 ------- 1 0.0 4.0 106 194
r 4.419301 2 3 tcp 592 ------- 1 0.0 4.0 107 195
r 4.435088 2 3 tcp 592 ------- 1 0.0 4.0 108 196
r 4.450875 2 3 tcp 592 ------- 1 0.0 4.0 109 197
r 4.466661 2 3 tcp 592 ------- 1 0.0 4.0 110 198
r 4.482448 2 3 tcp 592 ------- 1 0.0 4.0 52 199
r 4.498235 2 3 tcp 592 ------- 1 0.0 4.0 111 200
+ 4.669861 2 3 tcp 592 ------- 1 0.0 4.0 112 211
- 4.669861 2 3 tcp 592 ------- 1 0.0 4.0 112 211
+ 4.685648 2 3 tcp 592 ------- 1 0.0 4.0 113 212
- 4.685648 2 3 tcp 592 ------- 1 0.0 4.0 113 212
+ 4.701435 2 3 tcp 592 ------- 1 0.0 4.0 114 213
- 4.701435 2 3 tcp 592 ------- 1 0.0 4.0 114 213
+ 4.717221 2 3 tcp 592 ------- 1 0.0 4.0 115 214
- 4.717221 2 3 tcp 592 ------- 1 0.0 4.0 115 214
+ 4.733008 2 3 tcp 592 ------- 1 0.0 4.0 116 215
- 4.733008 2 3 tcp 592 ------- 1 0.0 4.0 116 215
+ 4.748795 2 3 tcp 592 ------- 1 0.0 4.0 117 216
- 4.748795 2 3 tcp 592 ------- 1 0.0 4.0 117 216
+ 4.764581 2 3 tcp 592 ------- 1 0.0 4.0 118 217
- 4.764581 2 3 tcp 592 ------- 1 0.0 4.0 118 217
+ 4.780368 2 3 tcp 592 ------- 1 0.0 4.0 119 218
- 4.780368 2 3 tcp 592 ------- 1 0.0 4.0 119 218
+ 4.796155 2 3 tcp 592 ------- 1 0.0 4.0 54 219
- 4.796155 2 3 tcp 592 ------- 1 0.0 4.0 54 219
+ 4.798523 2 3 tcp 592 ------- 1 0.0 4.0 120 220
- 4.811941 2 3 tcp 592 ------- 1 0.0 4.0 120 220
+ 4.811941 2 3 tcp 592 ------- 1 0.0 4.0 121 221
- 4.827728 2 3 tcp 592 ------- 1 0.0 4.0 121 221
r 4.885648 2 3 tcp 592 ------- 1 0.0 4.0 112 211
r 4.901435 2 3 tcp 592 ------- 1 0.0 4.0 113 212
r 4.917221 2 3 tcp 592 ------- 1 0.0 4.0 114 213
r 4.933008 2 3 tcp 592 ------- 1 0.0 4.0 115 214
r 4.948795 2 3 tcp 592 ------- 1 0.0 4.0 116 215
r 4.964581 2 3 tcp 592 ------- 1 0.0 4.0 117 216
r 4.980368 2 3 tcp 592 ------- 1 0.0 4.0 118 217
r 4.996155 2 3 tcp 592 ------- 1 0.0 4.0 119 218
r 5.011941 2 3 tcp 592 ------- 1 0.0 4.0 54 219
r 5.027728 2 3 tcp 592 ------- 1 0.0 4.0 120 220
r 5.043515 2 3 tcp 592 ------- 1 0.0 4.0 121 221
+ 5.096661 2 3 tcp 592 ---A--- 1 0.0 4.0 54 232
- 5.096661 2 3 tcp 592 ---A--- 1 0.0 4.0 54 232
+ 5.199355 2 3 tcp 592 ------- 1 0.0 4.0 55 234
- 5.199355 2 3 tcp 592 ------- 1 0.0 4.0 55 234
+ 5.215141 2 3 tcp 592 ------- 1 0.0 4.0 56 235
- 5.215141 2 3 tcp 592 ------- 1 0.0 4.0 56 235
r 5.312448 2 3 tcp 592 ---A--- 1 0.0 4.0 54 232
+ 5.325648 2 3 tcp 592 ------- 1 0.0 4.0 57 236
- 5.325648 2 3 tcp 592 ------- 1 0.0 4.0 57 236
+ 5.341435 2 3 tcp 592 ------- 1 0.0 4.0 58 237
- 5.341435 2 3 tcp 592 ------- 1 0.0 4.0 58 237
+ 5.357221 2 3 tcp 592 ------- 1 0.0 4.0 59 238
- 5.357221 2 3 tcp 592 ------- 1 0.0 4.0 59 238
r 5.415141 2 3 tcp 592 ------- 1 0.0 4.0 55 234
r 5.430928 2 3 tcp 592 ------- 1 0.0 4.0 56 235
r 5.541435 2 3 tcp 592 ------- 1 0.0 4.0 57 236
r 5.557221 2 3 tcp 592 ------- 1 0.0 4.0 58 237
r 5.573008 2 3 tcp 592 ------- 1 0.0 4.0 59 238
+ 5.744635 2 3 tcp 592 ------- 1 0.0 4.0 60 245
- 5.744635 2 3 tcp 592 ------- 1 0.0 4.0 60 245
+ 5.855141 2 3 tcp 592 ------- 1 0.0 4.0 61 246
- 5.855141 2 3 tcp 592 ------- 1 0.0 4.0 61 246
+ 5.870928 2 3 tcp 592 ------- 1 0.0 4.0 62 247
- 5.870928 2 3 tcp 592 ------- 1 0.0 4.0 62 247
+ 5.873296 2 3 tcp 592 ------- 1 0.0 4.0 63 248
- 5.886715 2 3 tcp 592 ------- 1 0.0 4.0 63 248
+ 5.886715 2 3 tcp 592 ------- 1 0.0 4.0 64 249
- 5.902501 2 3 tcp 592 ------- 1 0.0 4.0 64 249
r 5.960421 2 3 tcp 592 ------- 1 0.0 4.0 60 245
r 6.070928 2 3 tcp 592 ------- 1 0.0 4.0 61 246
r 6.086715 2 3 tcp 592 ------- 1 0.0 4.0 62 247
r 6.102501 2 3 tcp 592 ------- 1 0.0 4.0 63 248
r 6.118288 2 3 tcp 592 ------- 1 0.0 4.0 64 249
+ 6.274128 2 3 tcp 592 ------- 1 0.0 4.0 65 255
- 6.274128 2 3 tcp 592 ------- 1 0.0 4.0 65 255
+ 6.276496 2 3 tcp 592 ------- 1 0.0 4.0 66 256
- 6.289915 2 3 tcp 592 ------- 1 0.0 4.0 66 256
+ 6.384635 2 3 tcp 592 ------- 1 0.0 4.0 67 257
- 6.384635 2 3 tcp 592 ------- 1 0.0 4.0 67 257
+ 6.400421 2 3 tcp 592 ------- 1 0.0 4.0 82 258
- 6.400421 2 3 tcp 592 ------- 1 0.0 4.0 82 258
+ 6.402789 2 3 tcp 592 ------- 1 0.0 4.0 83 259
+ 6.405157 2 3 tcp 592 ------- 1 0.0 4.0 84 260
+ 6.407525 2 3 tcp 592 ------- 1 0.0 4.0 85 261
+ 6.409893 2 3 tcp 592 ------- 1 0.0 4.0 86 262
+ 6.412261 2 3 tcp 592 ------- 1 0.0 4.0 87 263
- 6.416208 2 3 tcp 592 ------- 1 0.0 4.0 83 259
+ 6.416208 2 3 tcp 592 ------- 1 0.0 4.0 88 264
- 6.431995 2 3 tcp 592 ------- 1 0.0 4.0 84 260
+ 6.431995 2 3 tcp 592 ------- 1 0.0 4.0 89 265
- 6.447781 2 3 tcp 592 ------- 1 0.0 4.0 85 261
- 6.463568 2 3 tcp 592 ------- 1 0.0 4.0 86 262
- 6.479355 2 3 tcp 592 ------- 1 0.0 4.0 87 263
r 6.489915 2 3 tcp 592 ------- 1 0.0 4.0 65 255
- 6.495141 2 3 tcp 592 ------- 1 0.0 4.0 88 264
r 6.505701 2 3 tcp 592 ------- 1 0.0 4.0 66 256
- 6.510928 2 3 tcp 592 ------- 1 0.0 4.0 89 265
r 6.600421 2 3 tcp 592 ------- 1 0.0 4.0 67 257
r 6.616208 2 3 tcp 592 ------- 1 0.0 4.0 82 258
r 6.631995 2 3 tcp 592 ------- 1 0.0 4.0 83 259
r 6.647781 2 3 tcp 592 ------- 1 0.0 4.0 84 260
r 6.663568 2 3 tcp 592 ------- 1 0.0 4.0 85 261
r 6.679355 2 3 tcp 592 ------- 1 0.0 4.0 86 262
r 6.695141 2 3 tcp 592 ------- 1 0.0 4.0 87 263
r 6.710928 2 3 tcp 592 ------- 1 0.0 4.0 88 264
r 6.726715 2 3 tcp 592 ------- 1 0.0 4.0 89 265
+ 6.929915 2 3 tcp 592 ------- 1 0.0 4.0 90 277
- 6.929915 2 3 tcp 592 ------- 1 0.0 4.0 90 277
+ 6.945701 2 3 tcp 592 ------- 1 0.0 4.0 91 278
- 6.945701 2 3 tcp 592 ------- 1 0.0 4.0 91 278
+ 6.961488 2 3 tcp 592 ------- 1 0.0 4.0 92 279
- 6.961488 2 3 tcp 592 ------- 1 0.0 4.0 92 279
+ 6.963856 2 3 tcp 592 ------- 1 0.0 4.0 93 280
- 6.977275 2 3 tcp 592 ------- 1 0.0 4.0 93 280
+ 6.977275 2 3 tcp 592 ------- 1 0.0 4.0 94 281
- 6.993061 2 3 tcp 592 ------- 1 0.0 4.0 94 281
+ 6.993061 2 3 tcp 592 ------- 1 0.0 4.0 95 282
+ 6.995429 2 3 tcp 592 ------- 1 0.0 4.0 96 283
- 7.008848 2 3 tcp 592 ------- 1 0.0 4.0 95 282
+ 7.008848 2 3 tcp 592 ------- 1 0.0 4.0 97 284
- 7.024635 2 3 tcp 592 ------- 1 0.0 4.0 96 283
+ 7.024635 2 3 tcp 592 ------- 1 0.0 4.0 98 285
+ 7.027003 2 3 tcp 592 ------- 1 0.0 4.0 99 286
- 7.040421 2 3 tcp 592 ------- 1 0.0 4.0 97 284
+ 7.040421 2 3 tcp 592 ------- 1 0.0 4.0 100 287
- 7.056208 2 3 tcp 592 ------- 1 0.0 4.0 98 285
- 7.071995 2 3 tcp 592 ------- 1 0.0 4.0 99 286
- 7.087781 2 3 tcp 592 ------- 1 0.0 4.0 100 287
r 7.145701 2 3 tcp 592 ------- 1 0.0 4.0 90 277
r 7.161488 2 3 tcp 592 ------- 1 0.0 4.0 91 278
r 7.177275 2 3 tcp 592 ------- 1 0.0 4.0 92 279
r 7.193061 2 3 tcp 592 ------- 1 0.0 4.0 93 280
r 7.208848 2 3 tcp 592 ------- 1 0.0 4.0 94 281
r 7.224635 2 3 tcp 592 ------- 1 0.0 4.0 95 282
r 7.240421 2 3 tcp 592 ------- 1 0.0 4.0 96 283
r 7.256208 2 3 tcp 592 ------- 1 0.0 4.0 97 284
r 7.271995 2 3 tcp 592 ------- 1 0.0 4.0 98 285
r 7.287781 2 3 tcp 592 ------- 1 0.0 4.0 99 286
r 7.303568 2 3 tcp 592 ------- 1 0.0 4.0 100 287
+ 7.459408 2 3 tcp 592 ------- 1 0.0 4.0 101 299
- 7.459408 2 3 tcp 592 ------- 1 0.0 4.0 101 299
+ 7.461776 2 3 tcp 592 ------- 1 0.0 4.0 102 300
- 7.475195 2 3 tcp 592 ------- 1 0.0 4.0 102 300
+ 7.475195 2 3 tcp 592 ------- 1 0.0 4.0 103 301
- 7.490981 2 3 tcp 592 ------- 1 0.0 4.0 103 301
+ 7.490981 2 3 tcp 592 ------- 1 0.0 4.0 104 302
+ 7.493349 2 3 tcp 592 ------- 1 0.0 4.0 105 303
- 7.506768 2 3 tcp 592 ------- 1 0.0 4.0 104 302
+ 7.506768 2 3 tcp 592 ------- 1 0.0 4.0 106 304
- 7.522555 2 3 tcp 592 ------- 1 0.0 4.0 105 303
+ 7.522555 2 3 tcp 592 ------- 1 0.0 4.0 107 305
- 7.538341 2 3 tcp 592 ------- 1 0.0 4.0 106 304
+ 7.538341 2 3 tcp 592 ------- 1 0.0 4.0 108 306
- 7.554128 2 3 tcp 592 ------- 1 0.0 4.0 107 305
+ 7.554128 2 3 tcp 592 ------- 1 0.0 4.0 109 307
- 7.569915 2 3 tcp 592 ------- 1 0.0 4.0 108 306
+ 7.569915 2 3 tcp 592 ------- 1 0.0 4.0 110 308
- 7.585701 2 3 tcp 592 ------- 1 0.0 4.0 109 307
+ 7.585701 2 3 tcp 592 ------- 1 0.0 4.0 111 309
- 7.601488 2 3 tcp 592 ------- 1 0.0 4.0 110 308
+ 7.601488 2 3 tcp 592 ------- 1 0.0 4.0 112 310
- 7.617275 2 3 tcp 592 ------- 1 0.0 4.0 111 309
+ 7.617275 2 3 tcp 592 ------- 1 0.0 4.0 122 311
+ 7.619643 2 3 tcp 592 ------- 1 0.0 4.0 123 312
+ 7.622011 2 3 tcp 592 ------- 1 0.0 4.0 124 313
+ 7.624379 2 3 tcp 592 ------- 1 0.0 4.0 125 314
+ 7.626747 2 3 tcp 592 ------- 1 0.0 4.0 126 315
+ 7.629115 2 3 tcp 592 ------- 1 0.0 4.0 127 316
+ 7.631483 2 3 tcp 592 ------- 1 0.0 4.0 128 317
- 7.633061 2 3 tcp 592 ------- 1 0.0 4.0 112 310
+ 7.633851 2 3 tcp 592 ------- 1 0.0 4.0 129 318
+ 7.636219 2 3 tcp 592 ------- 1 0.0 4.0 130 319
+ 7.638587 2 3 tcp 592 ------- 1 0.0 4.0 131 320
d 7.638587 2 3 tcp 592 ------- 1 0.0 4.0 131 320
+ 7.640955 2 3 tcp 592 ------- 1 0.0 4.0 132 321
d 7.640955 2 3 tcp 592 ------- 1 0.0 4.0 132 321
+ 7.643323 2 3 tcp 592 ------- 1 0.0 4.0 133 322
d 7.643323 2 3 tcp 592 ------- 1 0.0 4.0 133 322
- 7.648848 2 3 tcp 592 ------- 1 0.0 4.0 122 311
- 7.664635 2 3 tcp 592 ------- 1 0.0 4.0 123 312
r 7.675195 2 3 tcp 592 ------- 1 0.0 4.0 101 299
- 7.680421 2 3 tcp 592 ------- 1 0.0 4.0 124 313
r 7.690981 2 3 tcp 592 ------- 1 0.0 4.0 102 300
- 7.696208 2 3 tcp 592 ------- 1 0.0 4.0 125 314
r 7.706768 2 3 tcp 592 ------- 1 0.0 4.0 103 301
- 7.711995 2 3 tcp 592 ------- 1 0.0 4.0 126 315
r 7.722555 2 3 tcp 592 ------- 1 0.0 4.0 104 302
- 7.727781 2 3 tcp 592 ------- 1 0.0 4.0 127 316
r 7.738341 2 3 tcp 592 ------- 1 0.0 4.0 105 303
- 7.743568 2 3 tcp 592 ------- 1 0.0 4.0 128 317
r 7.754128 2 3 tcp 592 ------- 1 0.0 4.0 106 304
- 7.759355 2 3 tcp 592 ------- 1 0.0 4.0 129 318
r 7.769915 2 3 tcp 592 ------- 1 0.0 4.0 107 305
- 7.775141 2 3 tcp 592 ------- 1 0.0 4.0 130 319
r 7.785701 2 3 tcp 592 ------- 1 0.0 4.0 108 306
r 7.801488 2 3 tcp 592 ------- 1 0.0 4.0 109 307
r 7.817275 2 3 tcp 592 ------- 1 0.0 4.0 110 308
r 7.833061 2 3 tcp 592 ------- 1 0.0 4.0 111 309
r 7.848848 2 3 tcp 592 ------- 1 0.0 4.0 112 310
r 7.864635 2 3 tcp 592 ------- 1 0.0 4.0 122 311
r 7.880421 2 3 tcp 592 ------- 1 0.0 4.0 123 312
r 7.896208 2 3 tcp 592 ------- 1 0.0 4.0 124 313
r 7.911995 2 3 tcp 592 ------- 1 0.0 4.0 125 314
r 7.927781 2 3 tcp 592 ------- 1 0.0 4.0 126 315
r 7.943568 2 3 tcp 592 ------- 1 0.0 4.0 127 316
r 7.959355 2 3 tcp 592 ------- 1 0.0 4.0 128 317
r 7.975141 2 3 tcp 592 ------- 1 0.0 4.0 129 318
+ 7.988901 2 3 tcp 592 ------- 1 0.0 4.0 134 339
- 7.988901 2 3 tcp 592 ------- 1 0.0 4.0 134 339
r 7.990928 2 3 tcp 592 ------- 1 0.0 4.0 130 319
+ 8.004688 2 3 tcp 592 ------- 1 0.0 4.0 135 341
- 8.004688 2 3 tcp 592 ------- 1 0.0 4.0 135 341
r 8.204688 2 3 tcp 592 ------- 1 0.0 4.0 134 339
+ 8.209915 2 3 tcp 592 ------- 1 0.0 4.0 136 346
- 8.209915 2 3 tcp 592 ------- 1 0.0 4.0 136 346
r 8.220475 2 3 tcp 592 ------- 1 0.0 4.0 135 341
+ 8.225701 2 3 tcp 592 ------- 1 0.0 4.0 137 347
- 8.225701 2 3 tcp 592 ------- 1 0.0 4.0 137 347
+ 8.241488 2 3 tcp 592 ------- 1 0.0 4.0 138 348
- 8.241488 2 3 tcp 592 ------- 1 0.0 4.0 138 348
+ 8.257275 2 3 tcp 592 ------- 1 0.0 4.0 139 349
- 8.257275 2 3 tcp 592 ------- 1 0.0 4.0 139 349
+ 8.273061 2 3 tcp 592 ------- 1 0.0 4.0 140 351
- 8.273061 2 3 tcp 592 ------- 1 0.0 4.0 140 351
+ 8.288848 2 3 tcp 592 ------- 1 0.0 4.0 141 353
- 8.288848 2 3 tcp 592 ------- 1 0.0 4.0 141 353
+ 8.304635 2 3 tcp 592 ------- 1 0.0 4.0 142 354
- 8.304635 2 3 tcp 592 ------- 1 0.0 4.0 142 354
+ 8.307003 2 3 tcp 592 ------- 1 0.0 4.0 143 355
- 8.320421 2 3 tcp 592 ------- 1 0.0 4.0 143 355
r 8.425701 2 3 tcp 592 ------- 1 0.0 4.0 136 346
r 8.441488 2 3 tcp 592 ------- 1 0.0 4.0 137 347
r 8.457275 2 3 tcp 592 ------- 1 0.0 4.0 138 348
r 8.473061 2 3 tcp 592 ------- 1 0.0 4.0 139 349
r 8.488848 2 3 tcp 592 ------- 1 0.0 4.0 140 351
r 8.504635 2 3 tcp 592 ------- 1 0.0 4.0 141 353
+ 8.518395 2 3 tcp 592 ------- 1 0.0 4.0 144 358
- 8.518395 2 3 tcp 592 ------- 1 0.0 4.0 144 358
r 8.520421 2 3 tcp 592 ------- 1 0.0 4.0 142 354
+ 8.534181 2 3 tcp 592 ------- 1 0.0 4.0 145 360
- 8.534181 2 3 tcp 592 ------- 1 0.0 4.0 145 360
r 8.536208 2 3 tcp 592 ------- 1 0.0 4.0 143 355
r 8.734181 2 3 tcp 592 ------- 1 0.0 4.0 144 358
+ 8.739408 2 3 tcp 592 ---A--- 1 0.0 4.0 131 366
- 8.739408 2 3 tcp 592 ---A--- 1 0.0 4.0 131 366
r 8.749968 2 3 tcp 592 ------- 1 0.0 4.0 145 360
+ 8.849915 2 3 tcp 592 ------- 1 0.0 4.0 146 369
- 8.849915 2 3 tcp 592 ------- 1 0.0 4.0 146 369
r 8.955195 2 3 tcp 592 ---A--- 1 0.0 4.0 131 366
+ 9.047888 2 3 tcp 592 ------- 1 0.0 4.0 147 371
- 9.047888 2 3 tcp 592 ------- 1 0.0 4.0 147 371
+ 9.063675 2 3 tcp 592 ------- 1 0.0 4.0 148 372
- 9.063675 2 3 tcp 592 ------- 1 0.0 4.0 148 372
r 9.065701 2 3 tcp 592 ------- 1 0.0 4.0 146 369
r 9.263675 2 3 tcp 592 ------- 1 0.0 4.0 147 371
+ 9.268901 2 3 tcp 592 ------- 1 0.0 4.0 132 374
- 9.268901 2 3 tcp 592 ------- 1 0.0 4.0 132 374
+ 9.271269 2 3 tcp 592 ------- 1 0.0 4.0 149 375
r 9.279461 2 3 tcp 592 ------- 1 0.0 4.0 148 372
- 9.284688 2 3 tcp 592 ------- 1 0.0 4.0 149 375
+ 9.379408 2 3 tcp 592 ------- 1 0.0 4.0 150 378
- 9.379408 2 3 tcp 592 ------- 1 0.0 4.0 150 378
r 9.484688 2 3 tcp 592 ------- 1 0.0 4.0 132 374
r 9.500475 2 3 tcp 592 ------- 1 0.0 4.0 149 375
+ 9.577381 2 3 tcp 592 ------- 1 0.0 4.0 151 381
- 9.577381 2 3 tcp 592 ------- 1 0.0 4.0 151 381
+ 9.593168 2 3 tcp 592 ------- 1 0.0 4.0 152 382
- 9.593168 2 3 tcp 592 ------- 1 0.0 4.0 152 382
r 9.595195 2 3 tcp 592 ------- 1 0.0 4.0 150 378
r 9.793168 2 3 tcp 592 ------- 1 0.0 4.0 151 381
+ 9.798395 2 3 tcp 592 ------- 1 0.0 4.0 133 384
- 9.798395 2 3 tcp 592 ------- 1 0.0 4.0 133 384
+ 9.800763 2 3 tcp 592 ------- 1 0.0 4.0 153 385
r 9.808955 2 3 tcp 592 ------- 1 0.0 4.0 152 382
- 9.814181 2 3 tcp 592 ------- 1 0.0 4.0 153 385
+ 9.814181 2 3 tcp 592 ------- 1 0.0 4.0 154 386
- 9.829968 2 3 tcp 592 ------- 1 0.0 4.0 154 386
+ 9.908901 2 3 tcp 592 ------- 1 0.0 4.0 155 389
- 9.908901 2 3 tcp 592 ------- 1 0.0 4.0 155 389
r 10.014181 2 3 tcp 592 ------- 1 0.0 4.0 133 384
r 10.029968 2 3 tcp 592 ------- 1 0.0 4.0 153 385
r 10.045755 2 3 tcp 592 ------- 1 0.0 4.0 154 386
+ 10.078901 2 3 tcp 592 ---A--- 1 0.0 4.0 133 391
- 10.078901 2 3 tcp 592 ---A--- 1 0.0 4.0 133 391
+ 10.106875 2 3 tcp 592 ------- 1 0.0 4.0 134 393
- 10.106875 2 3 tcp 592 ------- 1 0.0 4.0 134 393
+ 10.122661 2 3 tcp 592 ------- 1 0.0 4.0 135 395
- 10.122661 2 3 tcp 592 ------- 1 0.0 4.0 135 395
r 10.124688 2 3 tcp 592 ------- 1 0.0 4.0 155 389
r 10.294688 2 3 tcp 592 ---A--- 1 0.0 4.0 133 391
r 10.322661 2 3 tcp 592 ------- 1 0.0 4.0 134 393
+ 10.327888 2 3 tcp 592 ------- 1 0.0 4.0 153 397
- 10.327888 2 3 tcp 592 ------- 1 0.0 4.0 153 397
+ 10.330256 2 3 tcp 592 ------- 1 0.0 4.0 154 398
r 10.338448 2 3 tcp 592 ------- 1 0.0 4.0 135 395
- 10.343675 2 3 tcp 592 ------- 1 0.0 4.0 154 398
+ 10.343675 2 3 tcp 592 ------- 1 0.0 4.0 155 399
+ 10.346043 2 3 tcp 592 ------- 1 0.0 4.0 156 400
- 10.359461 2 3 tcp 592 ------- 1 0.0 4.0 155 399
+ 10.359461 2 3 tcp 592 ------- 1 0.0 4.0 157 402
- 10.375248 2 3 tcp 592 ------- 1 0.0 4.0 156 400
- 10.391035 2 3 tcp 592 ------- 1 0.0 4.0 157 402
+ 10.438395 2 3 tcp 592 ------- 1 0.0 4.0 158 405
- 10.438395 2 3 tcp 592 ------- 1 0.0 4.0 158 405
r 10.543675 2 3 tcp 592 ------- 1 0.0 4.0 153 397
r 10.559461 2 3 tcp 592 ------- 1 0.0 4.0 154 398