+ 0.11016 2 3 tcp 40 ------- 1 0.0 4.0 0 0
- 0.11016 2 3 tcp 40 ------- 1 0.0 4.0 0 0
r 0.311227 2 3 tcp 40 ------- 1 0.0 4.0 0 0
+ 0.616101 2 3 tcp 592 ------- 1 0.0 4.0 1 2
- 0.616101 2 3 tcp 592 ------- 1 0.0 4.0 1 2
+ 0.618469 2 3 tcp 592 ------- 1 0.0 4.0 2 3
- 0.631888 2 3 tcp 592 ------- 1 0.0 4.0 2 3
r 0.831888 2 3 tcp 592 ------- 1 0.0 4.0 1 2
r 0.847675 2 3 tcp 592 ------- 1 0.0 4.0 2 3
+ 1.145595 2 3 tcp 592 ------- 1 0.0 4.0 3 6
- 1.145595 2 3 tcp 592 ------- 1 0.0 4.0 3 6
+ 1.147963 2 3 tcp 592 ------- 1 0.0 4.0 4 7
- 1.161381 2 3 tcp 592 ------- 1 0.0 4.0 4 7
+ 1.161381 2 3 tcp 592 ------- 1 0.0 4.0 5 8
+ 1.163749 2 3 tcp 592 ------- 1 0.0 4.0 6 9
- 1.177168 2 3 tcp 592 ------- 1 0.0 4.0 5 8
- 1.192955 2 3 tcp 592 ------- 1 0.0 4.0 6 9
r 1.361381 2 3 tcp 592 ------- 1 0.0 4.0 3 6
r 1.377168 2 3 tcp 592 ------- 1 0.0 4.0 4 7
r 1.392955 2 3 tcp 592 ------- 1 0.0 4.0 5 8
r 1.408741 2 3 tcp 592 ------- 1 0.0 4.0 6 9
+ 1.675088 2 3 tcp 592 ------- 1 0.0 4.0 7 14
- 1.675088 2 3 tcp 592 ------- 1 0.0 4.0 7 14
+ 1.677456 2 3 tcp 592 ------- 1 0.0 4.0 8 15
- 1.690875 2 3 tcp 592 ------- 1 0.0 4.0 8 15
+ 1.690875 2 3 tcp 592 ------- 1 0.0 4.0 9 16
+ 1.693243 2 3 tcp 592 ------- 1 0.0 4.0 10 17
- 1.706661 2 3 tcp 592 ------- 1 0.0 4.0 9 16
+ 1.706661 2 3 tcp 592 ------- 1 0.0 4.0 11 18
+ 1.709029 2 3 tcp 592 ------- 1 0.0 4.0 12 19
- 1.722448 2 3 tcp 592 ------- 1 0.0 4.0 10 17
+ 1.722448 2 3 tcp 592 ------- 1 0.0 4.0 13 20
+ 1.724816 2 3 tcp 592 ------- 1 0.0 4.0 14 21
- 1.738235 2 3 tcp 592 ------- 1 0.0 4.0 11 18
- 1.754021 2 3 tcp 592 ------- 1 0.0 4.0 12 19
- 1.769808 2 3 tcp 592 ------- 1 0.0 4.0 13 20
- 1.785595 2 3 tcp 592 ------- 1 0.0 4.0 14 21
r 1.890875 2 3 tcp 592 ------- 1 0.0 4.0 7 14
r 1.906661 2 3 tcp 592 ------- 1 0.0 4.0 8 15
r 1.922448 2 3 tcp 592 ------- 1 0.0 4.0 9 16
r 1.938235 2 3 tcp 592 ------- 1 0.0 4.0 10 17
r 1.954021 2 3 tcp 592 ------- 1 0.0 4.0 11 18
r 1.969808 2 3 tcp 592 ------- 1 0.0 4.0 12 19
r 1.985595 2 3 tcp 592 ------- 1 0.0 4.0 13 20
r 2.001381 2 3 tcp 592 ------- 1 0.0 4.0 14 21
+ 2.204581 2 3 tcp 592 ------- 1 0.0 4.0 15 30
- 2.204581 2 3 tcp 592 ------- 1 0.0 4.0 15 30
+ 2.206949 2 3 tcp 592 ------- 1 0.0 4.0 16 31
- 2.220368 2 3 tcp 592 ------- 1 0.0 4.0 16 31
+ 2.220368 2 3 tcp 592 ------- 1 0.0 4.0 17 32
+ 2.222736 2 3 tcp 592 ------- 1 0.0 4.0 18 33
- 2.236155 2 3 tcp 592 ------- 1 0.0 4.0 17 32
+ 2.236155 2 3 tcp 592 ------- 1 0.0 4.0 19 34
+ 2.238523 2 3 tcp 592 ------- 1 0.0 4.0 20 35
- 2.251941 2 3 tcp 592 ------- 1 0.0 4.0 18 33
+ 2.251941 2 3 tcp 592 ------- 1 0.0 4.0 21 36
+ 2.254309 2 3 tcp 592 ------- 1 0.0 4.0 22 37
- 2.267728 2 3 tcp 592 ------- 1 0.0 4.0 19 34
+ 2.267728 2 3 tcp 592 ------- 1 0.0 4.0 23 38
+ 2.270096 2 3 tcp 592 ------- 1 0.0 4.0 24 39
- 2.283515 2 3 tcp 592 ------- 1 0.0 4.0 20 35
+ 2.283515 2 3 tcp 592 ------- 1 0.0 4.0 25 40
+ 2.285883 2 3 tcp 592 ------- 1 0.0 4.0 26 41
- 2.299301 2 3 tcp 592 ------- 1 0.0 4.0 21 36
+ 2.299301 2 3 tcp 592 ------- 1 0.0 4.0 27 42
+ 2.301669 2 3 tcp 592 ------- 1 0.0 4.0 28 43
- 2.315088 2 3 tcp 592 ------- 1 0.0 4.0 22 37
+ 2.315088 2 3 tcp 592 ------- 1 0.0 4.0 29 44
+ 2.317456 2 3 tcp 592 ------- 1 0.0 4.0 30 45
- 2.330875 2 3 tcp 592 ------- 1 0.0 4.0 23 38
- 2.346661 2 3 tcp 592 ------- 1 0.0 4.0 24 39
- 2.362448 2 3 tcp 592 ------- 1 0.0 4.0 25 40
- 2.378235 2 3 tcp 592 ------- 1 0.0 4.0 26 41
- 2.394021 2 3 tcp 592 ------- 1 0.0 4.0 27 42
- 2.409808 2 3 tcp 592 ------- 1 0.0 4.0 28 43
r 2.420368 2 3 tcp 592 ------- 1 0.0 4.0 15 30
- 2.425595 2 3 tcp 592 ------- 1 0.0 4.0 29 44
r 2.436155 2 3 tcp 592 ------- 1 0.0 4.0 16 31
- 2.441381 2 3 tcp 592 ------- 1 0.0 4.0 30 45
r 2.451941 2 3 tcp 592 ------- 1 0.0 4.0 17 32
r 2.467728 2 3 tcp 592 ------- 1 0.0 4.0 18 33
r 2.483515 2 3 tcp 592 ------- 1 0.0 4.0 19 34
r 2.499301 2 3 tcp 592 ------- 1 0.0 4.0 20 35
r 2.515088 2 3 tcp 592 ------- 1 0.0 4.0 21 36
r 2.530875 2 3 tcp 592 ------- 1 0.0 4.0 22 37
r 2.546661 2 3 tcp 592 ------- 1 0.0 4.0 23 38
r 2.562448 2 3 tcp 592 ------- 1 0.0 4.0 24 39
r 2.578235 2 3 tcp 592 ------- 1 0.0 4.0 25 40
r 2.594021 2 3 tcp 592 ------- 1 0.0 4.0 26 41
r 2.609808 2 3 tcp 592 ------- 1 0.0 4.0 27 42
r 2.625595 2 3 tcp 592 ------- 1 0.0 4.0 28 43
r 2.641381 2 3 tcp 592 ------- 1 0.0 4.0 29 44
r 2.657168 2 3 tcp 592 ------- 1 0.0 4.0 30 45
+ 2.734075 2 3 tcp 592 ------- 1 0.0 4.0 31 62
- 2.734075 2 3 tcp 592 ------- 1 0.0 4.0 31 62
+ 2.736443 2 3 tcp 592 ------- 1 0.0 4.0 32 63
- 2.749861 2 3 tcp 592 ------- 1 0.0 4.0 32 63
+ 2.749861 2 3 tcp 592 ------- 1 0.0 4.0 33 64
+ 2.752229 2 3 tcp 592 ------- 1 0.0 4.0 34 65
- 2.765648 2 3 tcp 592 ------- 1 0.0 4.0 33 64
+ 2.765648 2 3 tcp 592 ------- 1 0.0 4.0 35 66
+ 2.768016 2 3 tcp 592 ------- 1 0.0 4.0 36 67
- 2.781435 2 3 tcp 592 ------- 1 0.0 4.0 34 65
+ 2.781435 2 3 tcp 592 ------- 1 0.0 4.0 37 68
+ 2.783803 2 3 tcp 592 ------- 1 0.0 4.0 38 69
- 2.797221 2 3 tcp 592 ------- 1 0.0 4.0 35 66
+ 2.797221 2 3 tcp 592 ------- 1 0.0 4.0 39 70
+ 2.799589 2 3 tcp 592 ------- 1 0.0 4.0 40 71
- 2.813008 2 3 tcp 592 ------- 1 0.0 4.0 36 67
+ 2.813008 2 3 tcp 592 ------- 1 0.0 4.0 41 72
+ 2.815376 2 3 tcp 592 ------- 1 0.0 4.0 42 73
- 2.828795 2 3 tcp 592 ------- 1 0.0 4.0 37 68
+ 2.828795 2 3 tcp 592 ------- 1 0.0 4.0 43 74
+ 2.831163 2 3 tcp 592 ------- 1 0.0 4.0 44 75
- 2.844581 2 3 tcp 592 ------- 1 0.0 4.0 38 69
+ 2.844581 2 3 tcp 592 ------- 1 0.0 4.0 45 76
+ 2.846949 2 3 tcp 592 ------- 1 0.0 4.0 46 77
- 2.860368 2 3 tcp 592 ------- 1 0.0 4.0 39 70
+ 2.860368 2 3 tcp 592 ------- 1 0.0 4.0 47 78
+ 2.862736 2 3 tcp 592 ------- 1 0.0 4.0 48 79
- 2.876155 2 3 tcp 592 ------- 1 0.0 4.0 40 71
+ 2.876155 2 3 tcp 592 ------- 1 0.0 4.0 49 80
+ 2.878523 2 3 tcp 592 ------- 1 0.0 4.0 50 81
d 2.878523 2 3 tcp 592 ------- 1 0.0 4.0 50 81
- 2.891941 2 3 tcp 592 ------- 1 0.0 4.0 41 72
+ 2.891941 2 3 tcp 592 ------- 1 0.0 4.0 51 82
+ 2.894309 2 3 tcp 592 ------- 1 0.0 4.0 52 83
d 2.894309 2 3 tcp 592 ------- 1 0.0 4.0 52 83
- 2.907728 2 3 tcp 592 ------- 1 0.0 4.0 42 73
+ 2.907728 2 3 tcp 592 ------- 1 0.0 4.0 53 84
+ 2.910096 2 3 tcp 592 ------- 1 0.0 4.0 54 85
d 2.910096 2 3 tcp 592 ------- 1 0.0 4.0 54 85
- 2.923515 2 3 tcp 592 ------- 1 0.0 4.0 43 74
+ 2.923515 2 3 tcp 592 ------- 1 0.0 4.0 55 86
+ 2.925883 2 3 tcp 592 ------- 1 0.0 4.0 56 87
d 2.925883 2 3 tcp 592 ------- 1 0.0 4.0 56 87
- 2.939301 2 3 tcp 592 ------- 1 0.0 4.0 44 75
+ 2.939301 2 3 tcp 592 ------- 1 0.0 4.0 57 88
+ 2.941669 2 3 tcp 592 ------- 1 0.0 4.0 58 89
d 2.941669 2 3 tcp 592 ------- 1 0.0 4.0 58 89
r 2.949861 2 3 tcp 592 ------- 1 0.0 4.0 31 62
- 2.955088 2 3 tcp 592 ------- 1 0.0 4.0 45 76
+ 2.955088 2 3 tcp 592 ------- 1 0.0 4.0 59 90
+ 2.957456 2 3 tcp 592 ------- 1 0.0 4.0 60 91
d 2.957456 2 3 tcp 592 ------- 1 0.0 4.0 60 91
r 2.965648 2 3 tcp 592 ------- 1 0.0 4.0 32 63
- 2.970875 2 3 tcp 592 ------- 1 0.0 4.0 46 77
+ 2.970875 2 3 tcp 592 ------- 1 0.0 4.0 61 92
+ 2.973243 2 3 tcp 592 ------- 1 0.0 4.0 62 93
d 2.973243 2 3 tcp 592 ------- 1 0.0 4.0 62 93
r 2.981435 2 3 tcp 592 ------- 1 0.0 4.0 33 64
- 2.986661 2 3 tcp 592 ------- 1 0.0 4.0 47 78
r 2.997221 2 3 tcp 592 ------- 1 0.0 4.0 34 65
- 3.002448 2 3 tcp 592 ------- 1 0.0 4.0 48 79
r 3.013008 2 3 tcp 592 ------- 1 0.0 4.0 35 66
- 3.018235 2 3 tcp 592 ------- 1 0.0 4.0 49 80
r 3.028795 2 3 tcp 592 ------- 1 0.0 4.0 36 67
- 3.034021 2 3 tcp 592 ------- 1 0.0 4.0 51 82
r 3.044581 2 3 tcp 592 ------- 1 0.0 4.0 37 68
- 3.049808 2 3 tcp 592 ------- 1 0.0 4.0 53 84
r 3.060368 2 3 tcp 592 ------- 1 0.0 4.0 38 69
- 3.065595 2 3 tcp 592 ------- 1 0.0 4.0 55 86
r 3.076155 2 3 tcp 592 ------- 1 0.0 4.0 39 70
- 3.081381 2 3 tcp 592 ------- 1 0.0 4.0 57 88
r 3.091941 2 3 tcp 592 ------- 1 0.0 4.0 40 71
- 3.097168 2 3 tcp 592 ------- 1 0.0 4.0 59 90
r 3.107728 2 3 tcp 592 ------- 1 0.0 4.0 41 72
- 3.112955 2 3 tcp 592 ------- 1 0.0 4.0 61 92
r 3.123515 2 3 tcp 592 ------- 1 0.0 4.0 42 73
r 3.139301 2 3 tcp 592 ------- 1 0.0 4.0 43 74
r 3.155088 2 3 tcp 592 ------- 1 0.0 4.0 44 75
r 3.170875 2 3 tcp 592 ------- 1 0.0 4.0 45 76
r 3.186661 2 3 tcp 592 ------- 1 0.0 4.0 46 77
r 3.202448 2 3 tcp 592 ------- 1 0.0 4.0 47 78
r 3.218235 2 3 tcp 592 ------- 1 0.0 4.0 48 79
r 3.234021 2 3 tcp 592 ------- 1 0.0 4.0 49 80
r 3.249808 2 3 tcp 592 ------- 1 0.0 4.0 51 82
+ 3.263568 2 3 tcp 592 ------- 1 0.0 4.0 63 110
- 3.263568 2 3 tcp 592 ------- 1 0.0 4.0 63 110
r 3.265595 2 3 tcp 592 ------- 1 0.0 4.0 53 84
+ 3.265936 2 3 tcp 592 ------- 1 0.0 4.0 64 111
- 3.279355 2 3 tcp 592 ------- 1 0.0 4.0 64 111
+ 3.279355 2 3 tcp 592 ------- 1 0.0 4.0 65 113
r 3.281381 2 3 tcp 592 ------- 1 0.0 4.0 55 86
+ 3.281723 2 3 tcp 592 ------- 1 0.0 4.0 66 114
- 3.295141 2 3 tcp 592 ------- 1 0.0 4.0 65 113
+ 3.295141 2 3 tcp 592 ------- 1 0.0 4.0 67 116
r 3.297168 2 3 tcp 592 ------- 1 0.0 4.0 57 88
+ 3.297509 2 3 tcp 592 ------- 1 0.0 4.0 68 117
- 3.310928 2 3 tcp 592 ------- 1 0.0 4.0 66 114
+ 3.310928 2 3 tcp 592 ------- 1 0.0 4.0 69 119
r 3.312955 2 3 tcp 592 ------- 1 0.0 4.0 59 90
+ 3.313296 2 3 tcp 592 ------- 1 0.0 4.0 70 120
- 3.326715 2 3 tcp 592 ------- 1 0.0 4.0 67 116
+ 3.326715 2 3 tcp 592 ------- 1 0.0 4.0 71 122
r 3.328741 2 3 tcp 592 ------- 1 0.0 4.0 61 92
+ 3.329083 2 3 tcp 592 ------- 1 0.0 4.0 72 123
- 3.342501 2 3 tcp 592 ------- 1 0.0 4.0 68 117
+ 3.342501 2 3 tcp 592 ------- 1 0.0 4.0 73 125
+ 3.344869 2 3 tcp 592 ------- 1 0.0 4.0 74 126
- 3.358288 2 3 tcp 592 ------- 1 0.0 4.0 69 119
+ 3.358288 2 3 tcp 592 ------- 1 0.0 4.0 75 128
+ 3.360656 2 3 tcp 592 ------- 1 0.0 4.0 76 129
- 3.374075 2 3 tcp 592 ------- 1 0.0 4.0 70 120
+ 3.374075 2 3 tcp 592 ------- 1 0.0 4.0 77 131
+ 3.376443 2 3 tcp 592 ------- 1 0.0 4.0 78 132
- 3.389861 2 3 tcp 592 ------- 1 0.0 4.0 71 122
+ 3.389861 2 3 tcp 592 ------- 1 0.0 4.0 79 134
+ 3.392229 2 3 tcp 592 ------- 1 0.0 4.0 80 135
- 3.405648 2 3 tcp 592 ------- 1 0.0 4.0 72 123
+ 3.405648 2 3 tcp 592 ------- 1 0.0 4.0 81 137
+ 3.408016 2 3 tcp 592 ------- 1 0.0 4.0 82 138
d 3.408016 2 3 tcp 592 ------- 1 0.0 4.0 82 138
- 3.421435 2 3 tcp 592 ------- 1 0.0 4.0 73 125
+ 3.421435 2 3 tcp 592 ------- 1 0.0 4.0 83 139
+ 3.423803 2 3 tcp 592 ------- 1 0.0 4.0 84 140
d 3.423803 2 3 tcp 592 ------- 1 0.0 4.0 84 140
- 3.437221 2 3 tcp 592 ------- 1 0.0 4.0 74 126
+ 3.437221 2 3 tcp 592 ------- 1 0.0 4.0 85 141
+ 3.439589 2 3 tcp 592 ------- 1 0.0 4.0 86 142
d 3.439589 2 3 tcp 592 ------- 1 0.0 4.0 86 142
- 3.453008 2 3 tcp 592 ------- 1 0.0 4.0 75 128
+ 3.453008 2 3 tcp 592 ------- 1 0.0 4.0 87 143
+ 3.455376 2 3 tcp 592 ------- 1 0.0 4.0 88 144
d 3.455376 2 3 tcp 592 ------- 1 0.0 4.0 88 144
- 3.468795 2 3 tcp 592 ------- 1 0.0 4.0 76 129
+ 3.468795 2 3 tcp 592 ------- 1 0.0 4.0 89 145
+ 3.471163 2 3 tcp 592 ------- 1 0.0 4.0 90 146
d 3.471163 2 3 tcp 592 ------- 1 0.0 4.0 90 146
r 3.479355 2 3 tcp 592 ------- 1 0.0 4.0 63 110
- 3.484581 2 3 tcp 592 ------- 1 0.0 4.0 77 131
+ 3.484581 2 3 tcp 592 ------- 1 0.0 4.0 91 147
+ 3.486949 2 3 tcp 592 ------- 1 0.0 4.0 92 148
d 3.486949 2 3 tcp 592 ------- 1 0.0 4.0 92 148
r 3.495141 2 3 tcp 592 ------- 1 0.0 4.0 64 111
- 3.500368 2 3 tcp 592 ------- 1 0.0 4.0 78 132
+ 3.500368 2 3 tcp 592 ------- 1 0.0 4.0 93 149
+ 3.502736 2 3 tcp 592 ------- 1 0.0 4.0 94 150
d 3.502736 2 3 tcp 592 ------- 1 0.0 4.0 94 150
r 3.510928 2 3 tcp 592 ------- 1 0.0 4.0 65 113
- 3.516155 2 3 tcp 592 ------- 1 0.0 4.0 79 134
+ 3.516155 2 3 tcp 592 ------- 1 0.0 4.0 95 151
+ 3.518523 2 3 tcp 592 ------- 1 0.0 4.0 96 152
d 3.518523 2 3 tcp 592 ------- 1 0.0 4.0 96 152
r 3.526715 2 3 tcp 592 ------- 1 0.0 4.0 66 114
- 3.531941 2 3 tcp 592 ------- 1 0.0 4.0 80 135
+ 3.531941 2 3 tcp 592 ------- 1 0.0 4.0 97 153
+ 3.534309 2 3 tcp 592 ------- 1 0.0 4.0 98 154
d 3.534309 2 3 tcp 592 ------- 1 0.0 4.0 98 154
r 3.542501 2 3 tcp 592 ------- 1 0.0 4.0 67 116
- 3.547728 2 3 tcp 592 ------- 1 0.0 4.0 81 137
+ 3.547728 2 3 tcp 592 ------- 1 0.0 4.0 99 156
+ 3.550096 2 3 tcp 592 ------- 1 0.0 4.0 100 157
d 3.550096 2 3 tcp 592 ------- 1 0.0 4.0 100 157
r 3.558288 2 3 tcp 592 ------- 1 0.0 4.0 68 117
- 3.563515 2 3 tcp 592 ------- 1 0.0 4.0 83 139
+ 3.563888 2 3 tcp 592 ------- 1 0.0 4.0 101 159
r 3.574075 2 3 tcp 592 ------- 1 0.0 4.0 69 119
- 3.579301 2 3 tcp 592 ------- 1 0.0 4.0 85 141
+ 3.580048 2 3 tcp 592 ------- 1 0.0 4.0 102 161
r 3.589861 2 3 tcp 592 ------- 1 0.0 4.0 70 120
- 3.595088 2 3 tcp 592 ------- 1 0.0 4.0 87 143
+ 3.596208 2 3 tcp 592 ---A--- 1 0.0 4.0 50 163
r 3.605648 2 3 tcp 592 ------- 1 0.0 4.0 71 122
- 3.610875 2 3 tcp 592 ------- 1 0.0 4.0 89 145
r 3.621435 2 3 tcp 592 ------- 1 0.0 4.0 72 123
- 3.626661 2 3 tcp 592 ------- 1 0.0 4.0 91 147
r 3.637221 2 3 tcp 592 ------- 1 0.0 4.0 73 125
- 3.642448 2 3 tcp 592 ------- 1 0.0 4.0 93 149
r 3.653008 2 3 tcp 592 ------- 1 0.0 4.0 74 126
- 3.658235 2 3 tcp 592 ------- 1 0.0 4.0 95 151
r 3.668795 2 3 tcp 592 ------- 1 0.0 4.0 75 128
- 3.674021 2 3 tcp 592 ------- 1 0.0 4.0 97 153
r 3.684581 2 3 tcp 592 ------- 1 0.0 4.0 76 129
- 3.689808 2 3 tcp 592 ------- 1 0.0 4.0 99 156
r 3.700368 2 3 tcp 592 ------- 1 0.0 4.0 77 131
- 3.705595 2 3 tcp 592 ------- 1 0.0 4.0 101 159
r 3.716155 2 3 tcp 592 ------- 1 0.0 4.0 78 132
- 3.721381 2 3 tcp 592 ------- 1 0.0 4.0 102 161
r 3.731941 2 3 tcp 592 ------- 1 0.0 4.0 79 134
- 3.737168 2 3 tcp 592 ---A--- 1 0.0 4.0 50 163
r 3.747728 2 3 tcp 592 ------- 1 0.0 4.0 80 135
r 3.763515 2 3 tcp 592 ------- 1 0.0 4.0 81 137
r 3.779301 2 3 tcp 592 ------- 1 0.0 4.0 83 139
r 3.795088 2 3 tcp 592 ------- 1 0.0 4.0 85 141
r 3.810875 2 3 tcp 592 ------- 1 0.0 4.0 87 143
r 3.826661 2 3 tcp 592 ------- 1 0.0 4.0 89 145
r 3.842448 2 3 tcp 592 ------- 1 0.0 4.0 91 147
r 3.858235 2 3 tcp 592 ------- 1 0.0 4.0 93 149
r 3.874021 2 3 tcp 592 ------- 1 0.0 4.0 95 151
r 3.889808 2 3 tcp 592 ------- 1 0.0 4.0 97 153
r 3.905595 2 3 tcp 592 ------- 1 0.0 4.0 99 156
r 3.921381 2 3 tcp 592 ------- 1 0.0 4.0 101 159
r 3.937168 2 3 tcp 592 ------- 1 0.0 4.0 102 161
r 3.952955 2 3 tcp 592 ---A--- 1 0.0 4.0 50 163
+ 4.141488 2 3 tcp 592 ------- 1 0.0 4.0 52 191
- 4.141488 2 3 tcp 592 ------- 1 0.0 4.0 52 191
+ 4.157275 2 3 tcp 592 ------- 1 0.0 4.0 54 192
- 4.157275 2 3 tcp 592 ------- 1 0.0 4.0 54 192
+ 4.173061 2 3 tcp 592 ------- 1 0.0 4.0 56 193
- 4.173061 2 3 tcp 592 ------- 1 0.0 4.0 56 193
+ 4.188848 2 3 tcp 592 ------- 1 0.0 4.0 58 194
- 4.188848 2 3 tcp 592 ------- 1 0.0 4.0 58 194
+ 4.204635 2 3 tcp 592 ------- 1 0.0 4.0 60 195
- 4.204635 2 3 tcp 592 ------- 1 0.0 4.0 60 195
+ 4.220421 2 3 tcp 592 ------- 1 0.0 4.0 62 196
- 4.220421 2 3 tcp 592 ------- 1 0.0 4.0 62 196
+ 4.236208 2 3 tcp 592 ------- 1 0.0 4.0 82 197
- 4.236208 2 3 tcp 592 ------- 1 0.0 4.0 82 197
+ 4.251995 2 3 tcp 592 ------- 1 0.0 4.0 84 198
- 4.251995 2 3 tcp 592 ------- 1 0.0 4.0 84 198
+ 4.267781 2 3 tcp 592 ------- 1 0.0 4.0 86 199
- 4.267781 2 3 tcp 592 ------- 1 0.0 4.0 86 199
+ 4.270149 2 3 tcp 592 ------- 1 0.0 4.0 88 200
- 4.283568 2 3 tcp 592 ------- 1 0.0 4.0 88 200
r 4.357275 2 3 tcp 592 ------- 1 0.0 4.0 52 191
r 4.373061 2 3 tcp 592 ------- 1 0.0 4.0 54 192
r 4.388848 2 3 tcp 592 ------- 1 0.0 4.0 56 193
r 4.404635 2 3 tcp 592 ------- 1 0.0 4.0 58 194
r 4.420421 2 3 tcp 592 ------- 1 0.0 4.0 60 195
r 4.436208 2 3 tcp 592 ------- 1 0.0 4.0 62 196
r 4.451995 2 3 tcp 592 ------- 1 0.0 4.0 82 197
r 4.467781 2 3 tcp 592 ------- 1 0.0 4.0 84 198
r 4.483568 2 3 tcp 592 ------- 1 0.0 4.0 86 199
r 4.499355 2 3 tcp 592 ------- 1 0.0 4.0 88 200
+ 4.672101 2 3 tcp 592 ------- 1 0.0 4.0 90 211
- 4.672101 2 3 tcp 592 ------- 1 0.0 4.0 90 211
+ 4.674469 2 3 tcp 592 ------- 1 0.0 4.0 92 212
- 4.687888 2 3 tcp 592 ------- 1 0.0 4.0 92 212
+ 4.687888 2 3 tcp 592 ------- 1 0.0 4.0 94 213
+ 4.690256 2 3 tcp 592 ------- 1 0.0 4.0 96 214
- 4.703675 2 3 tcp 592 ------- 1 0.0 4.0 94 213
+ 4.703675 2 3 tcp 592 ------- 1 0.0 4.0 98 215
+ 4.706043 2 3 tcp 592 ------- 1 0.0 4.0 100 216
- 4.719461 2 3 tcp 592 ------- 1 0.0 4.0 96 214
+ 4.719461 2 3 tcp 592 ------- 1 0.0 4.0 103 217
+ 4.721829 2 3 tcp 592 ------- 1 0.0 4.0 104 218
- 4.735248 2 3 tcp 592 ------- 1 0.0 4.0 98 215
+ 4.735248 2 3 tcp 592 ------- 1 0.0 4.0 105 219
+ 4.737616 2 3 tcp 592 ------- 1 0.0 4.0 106 220
- 4.751035 2 3 tcp 592 ------- 1 0.0 4.0 100 216
+ 4.751035 2 3 tcp 592 ------- 1 0.0 4.0 107 221
+ 4.753403 2 3 tcp 592 ------- 1 0.0 4.0 108 222
- 4.766821 2 3 tcp 592 ------- 1 0.0 4.0 103 217
+ 4.766821 2 3 tcp 592 ------- 1 0.0 4.0 109 223
+ 4.769189 2 3 tcp 592 ------- 1 0.0 4.0 110 224
- 4.782608 2 3 tcp 592 ------- 1 0.0 4.0 104 218
+ 4.782608 2 3 tcp 592 ------- 1 0.0 4.0 111 225
+ 4.784976 2 3 tcp 592 ------- 1 0.0 4.0 112 226
- 4.798395 2 3 tcp 592 ------- 1 0.0 4.0 105 219
+ 4.798395 2 3 tcp 592 ------- 1 0.0 4.0 113 227
+ 4.800763 2 3 tcp 592 ------- 1 0.0 4.0 114 228
- 4.814181 2 3 tcp 592 ------- 1 0.0 4.0 106 220
+ 4.814181 2 3 tcp 592 ------- 1 0.0 4.0 115 229
+ 4.816549 2 3 tcp 592 ------- 1 0.0 4.0 116 230
d 4.816549 2 3 tcp 592 ------- 1 0.0 4.0 116 230
- 4.829968 2 3 tcp 592 ------- 1 0.0 4.0 107 221
- 4.845755 2 3 tcp 592 ------- 1 0.0 4.0 108 222
- 4.861541 2 3 tcp 592 ------- 1 0.0 4.0 109 223
- 4.877328 2 3 tcp 592 ------- 1 0.0 4.0 110 224
r 4.887888 2 3 tcp 592 ------- 1 0.0 4.0 90 211
- 4.893115 2 3 tcp 592 ------- 1 0.0 4.0 111 225
r 4.903675 2 3 tcp 592 ------- 1 0.0 4.0 92 212
- 4.908901 2 3 tcp 592 ------- 1 0.0 4.0 112 226
r 4.919461 2 3 tcp 592 ------- 1 0.0 4.0 94 213
- 4.924688 2 3 tcp 592 ------- 1 0.0 4.0 113 227
r 4.935248 2 3 tcp 592 ------- 1 0.0 4.0 96 214
- 4.940475 2 3 tcp 592 ------- 1 0.0 4.0 114 228
r 4.951035 2 3 tcp 592 ------- 1 0.0 4.0 98 215
- 4.956261 2 3 tcp 592 ------- 1 0.0 4.0 115 229
r 4.966821 2 3 tcp 592 ------- 1 0.0 4.0 100 216
r 4.982608 2 3 tcp 592 ------- 1 0.0 4.0 103 217
r 4.998395 2 3 tcp 592 ------- 1 0.0 4.0 104 218
r 5.014181 2 3 tcp 592 ------- 1 0.0 4.0 105 219
r 5.029968 2 3 tcp 592 ------- 1 0.0 4.0 106 220
r 5.045755 2 3 tcp 592 ------- 1 0.0 4.0 107 221
r 5.061541 2 3 tcp 592 ------- 1 0.0 4.0 108 222
r 5.077328 2 3 tcp 592 ------- 1 0.0 4.0 109 223
r 5.093115 2 3 tcp 592 ------- 1 0.0 4.0 110 224
r 5.108901 2 3 tcp 592 ------- 1 0.0 4.0 111 225
r 5.124688 2 3 tcp 592 ------- 1 0.0 4.0 112 226
r 5.140475 2 3 tcp 592 ------- 1 0.0 4.0 113 227
r 5.156261 2 3 tcp 592 ------- 1 0.0 4.0 114 228
r 5.172048 2 3 tcp 592 ------- 1 0.0 4.0 115 229
+ 5.202715 2 3 tcp 592 ------- 1 0.0 4.0 117 248
- 5.202715 2 3 tcp 592 ------- 1 0.0 4.0 117 248
+ 5.205083 2 3 tcp 592 ------- 1 0.0 4.0 118 249
- 5.218501 2 3 tcp 592 ------- 1 0.0 4.0 118 249
+ 5.218501 2 3 tcp 592 ------- 1 0.0 4.0 119 251
+ 5.220869 2 3 tcp 592 ------- 1 0.0 4.0 120 252
- 5.234288 2 3 tcp 592 ------- 1 0.0 4.0 119 251
+ 5.234288 2 3 tcp 592 ------- 1 0.0 4.0 121 254
+ 5.236656 2 3 tcp 592 ------- 1 0.0 4.0 122 255
+ 5.249701 2 3 tcp 592 ------- 1 0.0 4.0 123 256
- 5.250075 2 3 tcp 592 ------- 1 0.0 4.0 120 252
+ 5.252069 2 3 tcp 592 ------- 1 0.0 4.0 124 257
+ 5.265115 2 3 tcp 592 ------- 1 0.0 4.0 125 258
- 5.265861 2 3 tcp 592 ------- 1 0.0 4.0 121 254
+ 5.267483 2 3 tcp 592 ------- 1 0.0 4.0 126 259
+ 5.280528 2 3 tcp 592 ------- 1 0.0 4.0 127 260
- 5.281648 2 3 tcp 592 ------- 1 0.0 4.0 122 255
+ 5.296315 2 3 tcp 592 ------- 1 0.0 4.0 128 261
- 5.297435 2 3 tcp 592 ------- 1 0.0 4.0 123 256
+ 5.312101 2 3 tcp 592 ------- 1 0.0 4.0 129 262
- 5.313221 2 3 tcp 592 ------- 1 0.0 4.0 124 257
+ 5.327888 2 3 tcp 592 ------- 1 0.0 4.0 130 263
- 5.329008 2 3 tcp 592 ------- 1 0.0 4.0 125 258
+ 5.343675 2 3 tcp 592 ------- 1 0.0 4.0 131 264
- 5.344795 2 3 tcp 592 ------- 1 0.0 4.0 126 259
+ 5.359461 2 3 tcp 592 ------- 1 0.0 4.0 132 265
- 5.360581 2 3 tcp 592 ------- 1 0.0 4.0 127 260
+ 5.375248 2 3 tcp 592 ------- 1 0.0 4.0 133 266
- 5.376368 2 3 tcp 592 ------- 1 0.0 4.0 128 261
+ 5.391035 2 3 tcp 592 ------- 1 0.0 4.0 134 267
- 5.392155 2 3 tcp 592 ------- 1 0.0 4.0 129 262
+ 5.406821 2 3 tcp 592 ------- 1 0.0 4.0 135 268
- 5.407941 2 3 tcp 592 ------- 1 0.0 4.0 130 263
r 5.418501 2 3 tcp 592 ------- 1 0.0 4.0 117 248
+ 5.422608 2 3 tcp 592 ------- 1 0.0 4.0 136 269
- 5.423728 2 3 tcp 592 ------- 1 0.0 4.0 131 264
r 5.434288 2 3 tcp 592 ------- 1 0.0 4.0 118 249
+ 5.438395 2 3 tcp 592 ------- 1 0.0 4.0 137 270
- 5.439515 2 3 tcp 592 ------- 1 0.0 4.0 132 265
r 5.450075 2 3 tcp 592 ------- 1 0.0 4.0 119 251
+ 5.454181 2 3 tcp 592 ------- 1 0.0 4.0 138 271
- 5.455301 2 3 tcp 592 ------- 1 0.0 4.0 133 266
r 5.465861 2 3 tcp 592 ------- 1 0.0 4.0 120 252
+ 5.469968 2 3 tcp 592 ------- 1 0.0 4.0 139 272
- 5.471088 2 3 tcp 592 ------- 1 0.0 4.0 134 267
r 5.481648 2 3 tcp 592 ------- 1 0.0 4.0 121 254
+ 5.485755 2 3 tcp 592 ------- 1 0.0 4.0 140 274
- 5.486875 2 3 tcp 592 ------- 1 0.0 4.0 135 268
+ 5.488123 2 3 tcp 592 ------- 1 0.0 4.0 141 275
r 5.497435 2 3 tcp 592 ------- 1 0.0 4.0 122 255
- 5.502661 2 3 tcp 592 ------- 1 0.0 4.0 136 269
r 5.513221 2 3 tcp 592 ------- 1 0.0 4.0 123 256
- 5.518448 2 3 tcp 592 ------- 1 0.0 4.0 137 270
r 5.529008 2 3 tcp 592 ------- 1 0.0 4.0 124 257
- 5.534235 2 3 tcp 592 ------- 1 0.0 4.0 138 271
r 5.544795 2 3 tcp 592 ------- 1 0.0 4.0 125 258
- 5.550021 2 3 tcp 592 ------- 1 0.0 4.0 139 272
r 5.560581 2 3 tcp 592 ------- 1 0.0 4.0 126 259
- 5.565808 2 3 tcp 592 ------- 1 0.0 4.0 140 274
r 5.576368 2 3 tcp 592 ------- 1 0.0 4.0 127 260
- 5.581595 2 3 tcp 592 ------- 1 0.0 4.0 141 275
r 5.592155 2 3 tcp 592 ------- 1 0.0 4.0 128 261
r 5.607941 2 3 tcp 592 ------- 1 0.0 4.0 129 262
r 5.623728 2 3 tcp 592 ------- 1 0.0 4.0 130 263
r 5.639515 2 3 tcp 592 ------- 1 0.0 4.0 131 264
r 5.655301 2 3 tcp 592 ------- 1 0.0 4.0 132 265
r 5.671088 2 3 tcp 592 ------- 1 0.0 4.0 133 266
r 5.686875 2 3 tcp 592 ------- 1 0.0 4.0 134 267
r 5.702661 2 3 tcp 592 ------- 1 0.0 4.0 135 268
r 5.718448 2 3 tcp 592 ------- 1 0.0 4.0 136 269
+ 5.732581 2 3 tcp 592 ------- 1 0.0 4.0 142 291
- 5.732581 2 3 tcp 592 ------- 1 0.0 4.0 142 291
r 5.734235 2 3 tcp 592 ------- 1 0.0 4.0 137 270
+ 5.748368 2 3 tcp 592 ------- 1 0.0 4.0 143 293
- 5.748368 2 3 tcp 592 ------- 1 0.0 4.0 143 293
r 5.750021 2 3 tcp 592 ------- 1 0.0 4.0 138 271
+ 5.764155 2 3 tcp 592 ---A--- 1 0.0 4.0 116 295
- 5.764155 2 3 tcp 592 ---A--- 1 0.0 4.0 116 295
r 5.765808 2 3 tcp 592 ------- 1 0.0 4.0 139 272
r 5.781595 2 3 tcp 592 ------- 1 0.0 4.0 140 274
r 5.797381 2 3 tcp 592 ------- 1 0.0 4.0 141 275
r 5.948368 2 3 tcp 592 ------- 1 0.0 4.0 142 291
r 5.964155 2 3 tcp 592 ------- 1 0.0 4.0 143 293
+ 5.969381 2 3 tcp 592 ------- 1 0.0 4.0 144 303
- 5.969381 2 3 tcp 592 ------- 1 0.0 4.0 144 303
r 5.979941 2 3 tcp 592 ---A--- 1 0.0 4.0 116 295
+ 5.985168 2 3 tcp 592 ------- 1 0.0 4.0 145 304
- 5.985168 2 3 tcp 592 ------- 1 0.0 4.0 145 304
+ 6.000955 2 3 tcp 592 ------- 1 0.0 4.0 146 305
- 6.000955 2 3 tcp 592 ------- 1 0.0 4.0 146 305
+ 6.016741 2 3 tcp 592 ------- 1 0.0 4.0 147 307
- 6.016741 2 3 tcp 592 ------- 1 0.0 4.0 147 307
+ 6.032528 2 3 tcp 592 ------- 1 0.0 4.0 148 309
- 6.032528 2 3 tcp 592 ------- 1 0.0 4.0 148 309
+ 6.048315 2 3 tcp 592 ------- 1 0.0 4.0 149 311
- 6.048315 2 3 tcp 592 ------- 1 0.0 4.0 149 311
+ 6.064101 2 3 tcp 592 ------- 1 0.0 4.0 150 312
- 6.064101 2 3 tcp 592 ------- 1 0.0 4.0 150 312
+ 6.079888 2 3 tcp 592 ------- 1 0.0 4.0 151 313
- 6.079888 2 3 tcp 592 ------- 1 0.0 4.0 151 313
+ 6.095675 2 3 tcp 592 ------- 1 0.0 4.0 152 314
- 6.095675 2 3 tcp 592 ------- 1 0.0 4.0 152 314
+ 6.111461 2 3 tcp 592 ------- 1 0.0 4.0 153 315
- 6.111461 2 3 tcp 592 ------- 1 0.0 4.0 153 315
r 6.185168 2 3 tcp 592 ------- 1 0.0 4.0 144 303
r 6.200955 2 3 tcp 592 ------- 1 0.0 4.0 145 304
r 6.216741 2 3 tcp 592 ------- 1 0.0 4.0 146 305
r 6.232528 2 3 tcp 592 ------- 1 0.0 4.0 147 307
r 6.248315 2 3 tcp 592 ------- 1 0.0 4.0 148 309
+ 6.262448 2 3 tcp 592 ------- 1 0.0 4.0 154 317
- 6.262448 2 3 tcp 592 ------- 1 0.0 4.0 154 317
r 6.264101 2 3 tcp 592 ------- 1 0.0 4.0 149 311
+ 6.278235 2 3 tcp 592 ------- 1 0.0 4.0 155 319
- 6.278235 2 3 tcp 592 ------- 1 0.0 4.0 155 319
r 6.279888 2 3 tcp 592 ------- 1 0.0 4.0 150 312
+ 6.293648 2 3 tcp 592 ------- 1 0.0 4.0 156 321
- 6.294021 2 3 tcp 592 ------- 1 0.0 4.0 156 321
r 6.295675 2 3 tcp 592 ------- 1 0.0 4.0 151 313
r 6.311461 2 3 tcp 592 ------- 1 0.0 4.0 152 314
r 6.327248 2 3 tcp 592 ------- 1 0.0 4.0 153 315
r 6.478235 2 3 tcp 592 ------- 1 0.0 4.0 154 317
r 6.494021 2 3 tcp 592 ------- 1 0.0 4.0 155 319
+ 6.498875 2 3 tcp 592 ------- 1 0.0 4.0 157 329
- 6.498875 2 3 tcp 592 ------- 1 0.0 4.0 157 329
r 6.509808 2 3 tcp 592 ------- 1 0.0 4.0 156 321
+ 6.514661 2 3 tcp 592 ------- 1 0.0 4.0 158 330
- 6.514661 2 3 tcp 592 ------- 1 0.0 4.0 158 330
+ 6.530448 2 3 tcp 592 ------- 1 0.0 4.0 159 331
- 6.530448 2 3 tcp 592 ------- 1 0.0 4.0 159 331
+ 6.546235 2 3 tcp 592 ------- 1 0.0 4.0 160 333
- 6.546235 2 3 tcp 592 ------- 1 0.0 4.0 160 333
+ 6.562021 2 3 tcp 592 ------- 1 0.0 4.0 161 335
- 6.562021 2 3 tcp 592 ------- 1 0.0 4.0 161 335
+ 6.577808 2 3 tcp 592 ------- 1 0.0 4.0 162 337
- 6.577808 2 3 tcp 592 ------- 1 0.0 4.0 162 337
+ 6.593595 2 3 tcp 592 ------- 1 0.0 4.0 163 338
- 6.593595 2 3 tcp 592 ------- 1 0.0 4.0 163 338
+ 6.609381 2 3 tcp 592 ------- 1 0.0 4.0 164 339
- 6.609381 2 3 tcp 592 ------- 1 0.0 4.0 164 339
+ 6.625168 2 3 tcp 592 ------- 1 0.0 4.0 165 340
- 6.625168 2 3 tcp 592 ------- 1 0.0 4.0 165 340
+ 6.640955 2 3 tcp 592 ------- 1 0.0 4.0 166 341
- 6.640955 2 3 tcp 592 ------- 1 0.0 4.0 166 341
r 6.714661 2 3 tcp 592 ------- 1 0.0 4.0 157 329
r 6.730448 2 3 tcp 592 ------- 1 0.0 4.0 158 330
r 6.746235 2 3 tcp 592 ------- 1 0.0 4.0 159 331
r 6.762021 2 3 tcp 592 ------- 1 0.0 4.0 160 333
r 6.777808 2 3 tcp 592 ------- 1 0.0 4.0 161 335
+ 6.791941 2 3 tcp 592 ------- 1 0.0 4.0 167 343
- 6.791941 2 3 tcp 592 ------- 1 0.0 4.0 167 343
r 6.793595 2 3 tcp 592 ------- 1 0.0 4.0 162 337
+ 6.807728 2 3 tcp 592 ------- 1 0.0 4.0 168 345
- 6.807728 2 3 tcp 592 ------- 1 0.0 4.0 168 345
r 6.809381 2 3 tcp 592 ------- 1 0.0 4.0 163 338
+ 6.823515 2 3 tcp 592 ------- 1 0.0 4.0 169 347
- 6.823515 2 3 tcp 592 ------- 1 0.0 4.0 169 347
r 6.825168 2 3 tcp 592 ------- 1 0.0 4.0 164 339
r 6.840955 2 3 tcp 592 ------- 1 0.0 4.0 165 340
r 6.856741 2 3 tcp 592 ------- 1 0.0 4.0 166 341
r 7.007728 2 3 tcp 592 ------- 1 0.0 4.0 167 343
r 7.023515 2 3 tcp 592 ------- 1 0.0 4.0 168 345
+ 7.028368 2 3 tcp 592 ------- 1 0.0 4.0 170 355
- 7.028368 2 3 tcp 592 ------- 1 0.0 4.0 170 355
+ 7.030736 2 3 tcp 592 ------- 1 0.0 4.0 171 356
r 7.039301 2 3 tcp 592 ------- 1 0.0 4.0 169 347
- 7.044155 2 3 tcp 592 ------- 1 0.0 4.0 171 356
+ 7.044155 2 3 tcp 592 ------- 1 0.0 4.0 172 357
- 7.059941 2 3 tcp 592 ------- 1 0.0 4.0 172 357
+ 7.059941 2 3 tcp 592 ------- 1 0.0 4.0 173 358
- 7.075728 2 3 tcp 592 ------- 1 0.0 4.0 173 358
+ 7.075728 2 3 tcp 592 ------- 1 0.0 4.0 174 360
- 7.091515 2 3 tcp 592 ------- 1 0.0 4.0 174 360
+ 7.091515 2 3 tcp 592 ------- 1 0.0 4.0 175 362
- 7.107301 2 3 tcp 592 ------- 1 0.0 4.0 175 362
+ 7.107301 2 3 tcp 592 ------- 1 0.0 4.0 176 364
- 7.123088 2 3 tcp 592 ------- 1 0.0 4.0 176 364
+ 7.123088 2 3 tcp 592 ------- 1 0.0 4.0 177 365
- 7.138875 2 3 tcp 592 ------- 1 0.0 4.0 177 365
+ 7.138875 2 3 tcp 592 ------- 1 0.0 4.0 178 366
- 7.154661 2 3 tcp 592 ------- 1 0.0 4.0 178 366
+ 7.154661 2 3 tcp 592 ------- 1 0.0 4.0 179 367
- 7.170448 2 3 tcp 592 ------- 1 0.0 4.0 179 367
+ 7.170448 2 3 tcp 592 ------- 1 0.0 4.0 180 368
- 7.186235 2 3 tcp 592 ------- 1 0.0 4.0 180 368
r 7.244155 2 3 tcp 592 ------- 1 0.0 4.0 170 355
r 7.259941 2 3 tcp 592 ------- 1 0.0 4.0 171 356
r 7.275728 2 3 tcp 592 ------- 1 0.0 4.0 172 357
r 7.291515 2 3 tcp 592 ------- 1 0.0 4.0 173 358
r 7.307301 2 3 tcp 592 ------- 1 0.0 4.0 174 360
+ 7.321435 2 3 tcp 592 ------- 1 0.0 4.0 181 370
- 7.321435 2 3 tcp 592 ------- 1 0.0 4.0 181 370
r 7.323088 2 3 tcp 592 ------- 1 0.0 4.0 175 362
+ 7.337221 2 3 tcp 592 ------- 1 0.0 4.0 182 372
- 7.337221 2 3 tcp 592 ------- 1 0.0 4.0 182 372
r 7.338875 2 3 tcp 592 ------- 1 0.0 4.0 176 364
+ 7.353008 2 3 tcp 592 ------- 1 0.0 4.0 183 374
- 7.353008 2 3 tcp 592 ------- 1 0.0 4.0 183 374
r 7.354661 2 3 tcp 592 ------- 1 0.0 4.0 177 365
r 7.370448 2 3 tcp 592 ------- 1 0.0 4.0 178 366
r 7.386235 2 3 tcp 592 ------- 1 0.0 4.0 179 367
r 7.402021 2 3 tcp 592 ------- 1 0.0 4.0 180 368
r 7.537221 2 3 tcp 592 ------- 1 0.0 4.0 181 370
r 7.553008 2 3 tcp 592 ------- 1 0.0 4.0 182 372
+ 7.557861 2 3 tcp 592 ------- 1 0.0 4.0 184 383
- 7.557861 2 3 tcp 592 ------- 1 0.0 4.0 184 383
r 7.568795 2 3 tcp 592 ------- 1 0.0 4.0 183 374
+ 7.573648 2 3 tcp 592 ------- 1 0.0 4.0 185 384
- 7.573648 2 3 tcp 592 ------- 1 0.0 4.0 185 384
+ 7.576016 2 3 tcp 592 ------- 1 0.0 4.0 186 385
- 7.589435 2 3 tcp 592 ------- 1 0.0 4.0 186 385
+ 7.589435 2 3 tcp 592 ------- 1 0.0 4.0 187 386
- 7.605221 2 3 tcp 592 ------- 1 0.0 4.0 187 386
+ 7.605221 2 3 tcp 592 ------- 1 0.0 4.0 188 388
- 7.621008 2 3 tcp 592 ------- 1 0.0 4.0 188 388
+ 7.621008 2 3 tcp 592 ------- 1 0.0 4.0 189 390
- 7.636795 2 3 tcp 592 ------- 1 0.0 4.0 189 390
+ 7.636795 2 3 tcp 592 ------- 1 0.0 4.0 190 392
- 7.652581 2 3 tcp 592 ------- 1 0.0 4.0 190 392
+ 7.652581 2 3 tcp 592 ------- 1 0.0 4.0 191 393
- 7.668368 2 3 tcp 592 ------- 1 0.0 4.0 191 393
+ 7.668368 2 3 tcp 592 ------- 1 0.0 4.0 192 394
- 7.684155 2 3 tcp 592 ------- 1 0.0 4.0 192 394
+ 7.684155 2 3 tcp 592 ------- 1 0.0 4.0 193 395
- 7.699941 2 3 tcp 592 ------- 1 0.0 4.0 193 395
+ 7.699941 2 3 tcp 592 ------- 1 0.0 4.0 194 396
- 7.715728 2 3 tcp 592 ------- 1 0.0 4.0 194 396
+ 7.715728 2 3 tcp 592 ------- 1 0.0 4.0 195 397
- 7.731515 2 3 tcp 592 ------- 1 0.0 4.0 195 397
r 7.773648 2 3 tcp 592 ------- 1 0.0 4.0 184 383
r 7.789435 2 3 tcp 592 ------- 1 0.0 4.0 185 384
r 7.805221 2 3 tcp 592 ------- 1 0.0 4.0 186 385
r 7.821008 2 3 tcp 592 ------- 1 0.0 4.0 187 386
r 7.836795 2 3 tcp 592 ------- 1 0.0 4.0 188 388
+ 7.850928 2 3 tcp 592 ------- 1 0.0 4.0 196 399
- 7.850928 2 3 tcp 592 ------- 1 0.0 4.0 196 399
r 7.852581 2 3 tcp 592 ------- 1 0.0 4.0 189 390
+ 7.866715 2 3 tcp 592 ------- 1 0.0 4.0 197 401
- 7.866715 2 3 tcp 592 ------- 1 0.0 4.0 197 401
r 7.868368 2 3 tcp 592 ------- 1 0.0 4.0 190 392