+ 0.112208 2 3 tcp 552 ------- 1 0.0 4.0 0 0
- 0.112208 2 3 tcp 552 ------- 1 0.0 4.0 0 0
r 0.326928 2 3 tcp 552 ------- 1 0.0 4.0 0 0
+ 0.639835 2 3 tcp 552 ------- 1 0.0 4.0 1 2
- 0.639835 2 3 tcp 552 ------- 1 0.0 4.0 1 2
r 0.854555 2 3 tcp 552 ------- 1 0.0 4.0 1 2
+ 1.167461 2 3 tcp 552 ------- 1 0.0 4.0 2 4
- 1.167461 2 3 tcp 552 ------- 1 0.0 4.0 2 4
+ 1.169669 2 3 tcp 552 ------- 1 0.0 4.0 3 5
+ 1.171877 2 3 tcp 552 ------- 1 0.0 4.0 4 6
- 1.182181 2 3 tcp 552 ------- 1 0.0 4.0 3 5
- 1.196901 2 3 tcp 552 ------- 1 0.0 4.0 4 6
r 1.382181 2 3 tcp 552 ------- 1 0.0 4.0 2 4
r 1.396901 2 3 tcp 552 ------- 1 0.0 4.0 3 5
r 1.411621 2 3 tcp 552 ------- 1 0.0 4.0 4 6
+ 1.695088 2 3 tcp 552 ------- 1 0.0 4.0 5 10
- 1.695088 2 3 tcp 552 ------- 1 0.0 4.0 5 10
+ 1.709808 2 3 tcp 552 ------- 1 0.0 4.0 6 11
- 1.709808 2 3 tcp 552 ------- 1 0.0 4.0 6 11
+ 1.724528 2 3 tcp 552 ------- 1 0.0 4.0 7 12
- 1.724528 2 3 tcp 552 ------- 1 0.0 4.0 7 12
r 1.909808 2 3 tcp 552 ------- 1 0.0 4.0 5 10
r 1.924528 2 3 tcp 552 ------- 1 0.0 4.0 6 11
r 1.939248 2 3 tcp 552 ------- 1 0.0 4.0 7 12
+ 2.222715 2 3 tcp 552 ------- 1 0.0 4.0 8 16
- 2.222715 2 3 tcp 552 ------- 1 0.0 4.0 8 16
+ 2.224923 2 3 tcp 552 ------- 1 0.0 4.0 9 17
- 2.237435 2 3 tcp 552 ------- 1 0.0 4.0 9 17
+ 2.237435 2 3 tcp 552 ------- 1 0.0 4.0 10 18
+ 2.239643 2 3 tcp 552 ------- 1 0.0 4.0 11 19
- 2.252155 2 3 tcp 552 ------- 1 0.0 4.0 10 18
+ 2.252155 2 3 tcp 552 ------- 1 0.0 4.0 12 20
+ 2.254363 2 3 tcp 552 ------- 1 0.0 4.0 13 21
- 2.266875 2 3 tcp 552 ------- 1 0.0 4.0 11 19
- 2.281595 2 3 tcp 552 ------- 1 0.0 4.0 12 20
- 2.296315 2 3 tcp 552 ------- 1 0.0 4.0 13 21
r 2.437435 2 3 tcp 552 ------- 1 0.0 4.0 8 16
r 2.452155 2 3 tcp 552 ------- 1 0.0 4.0 9 17
r 2.466875 2 3 tcp 552 ------- 1 0.0 4.0 10 18
r 2.481595 2 3 tcp 552 ------- 1 0.0 4.0 11 19
r 2.496315 2 3 tcp 552 ------- 1 0.0 4.0 12 20
r 2.511035 2 3 tcp 552 ------- 1 0.0 4.0 13 21
+ 2.750341 2 3 tcp 552 ------- 1 0.0 4.0 14 28
- 2.750341 2 3 tcp 552 ------- 1 0.0 4.0 14 28
+ 2.765061 2 3 tcp 552 ------- 1 0.0 4.0 15 29
- 2.765061 2 3 tcp 552 ------- 1 0.0 4.0 15 29
+ 2.779781 2 3 tcp 552 ------- 1 0.0 4.0 16 30
- 2.779781 2 3 tcp 552 ------- 1 0.0 4.0 16 30
+ 2.794501 2 3 tcp 552 ------- 1 0.0 4.0 17 31
- 2.794501 2 3 tcp 552 ------- 1 0.0 4.0 17 31
+ 2.809221 2 3 tcp 552 ------- 1 0.0 4.0 18 32
- 2.809221 2 3 tcp 552 ------- 1 0.0 4.0 18 32
+ 2.823941 2 3 tcp 552 ------- 1 0.0 4.0 19 33
- 2.823941 2 3 tcp 552 ------- 1 0.0 4.0 19 33
r 2.965061 2 3 tcp 552 ------- 1 0.0 4.0 14 28
r 2.979781 2 3 tcp 552 ------- 1 0.0 4.0 15 29
r 2.994501 2 3 tcp 552 ------- 1 0.0 4.0 16 30
r 3.009221 2 3 tcp 552 ------- 1 0.0 4.0 17 31
r 3.023941 2 3 tcp 552 ------- 1 0.0 4.0 18 32
r 3.038661 2 3 tcp 552 ------- 1 0.0 4.0 19 33
+ 3.277968 2 3 tcp 552 ------- 1 0.0 4.0 20 40
- 3.277968 2 3 tcp 552 ------- 1 0.0 4.0 20 40
+ 3.280176 2 3 tcp 552 ------- 1 0.0 4.0 21 41
- 3.292688 2 3 tcp 552 ------- 1 0.0 4.0 21 41
+ 3.292688 2 3 tcp 552 ------- 1 0.0 4.0 22 42
+ 3.294896 2 3 tcp 552 ------- 1 0.0 4.0 23 43
- 3.307408 2 3 tcp 552 ------- 1 0.0 4.0 22 42
+ 3.307408 2 3 tcp 552 ------- 1 0.0 4.0 24 44
+ 3.309616 2 3 tcp 552 ------- 1 0.0 4.0 25 45
- 3.322128 2 3 tcp 552 ------- 1 0.0 4.0 23 43
+ 3.322128 2 3 tcp 552 ------- 1 0.0 4.0 26 46
+ 3.324336 2 3 tcp 552 ------- 1 0.0 4.0 27 47
- 3.336848 2 3 tcp 552 ------- 1 0.0 4.0 24 44
+ 3.336848 2 3 tcp 552 ------- 1 0.0 4.0 28 48
+ 3.339056 2 3 tcp 552 ------- 1 0.0 4.0 29 49
- 3.351568 2 3 tcp 552 ------- 1 0.0 4.0 25 45
+ 3.351568 2 3 tcp 552 ------- 1 0.0 4.0 30 50
+ 3.353776 2 3 tcp 552 ------- 1 0.0 4.0 31 51
- 3.366288 2 3 tcp 552 ------- 1 0.0 4.0 26 46
- 3.381008 2 3 tcp 552 ------- 1 0.0 4.0 27 47
- 3.395728 2 3 tcp 552 ------- 1 0.0 4.0 28 48
- 3.410448 2 3 tcp 552 ------- 1 0.0 4.0 29 49
- 3.425168 2 3 tcp 552 ------- 1 0.0 4.0 30 50
- 3.439888 2 3 tcp 552 ------- 1 0.0 4.0 31 51
r 3.492688 2 3 tcp 552 ------- 1 0.0 4.0 20 40
r 3.507408 2 3 tcp 552 ------- 1 0.0 4.0 21 41
r 3.522128 2 3 tcp 552 ------- 1 0.0 4.0 22 42
r 3.536848 2 3 tcp 552 ------- 1 0.0 4.0 23 43
r 3.551568 2 3 tcp 552 ------- 1 0.0 4.0 24 44
r 3.566288 2 3 tcp 552 ------- 1 0.0 4.0 25 45
r 3.581008 2 3 tcp 552 ------- 1 0.0 4.0 26 46
r 3.595728 2 3 tcp 552 ------- 1 0.0 4.0 27 47
r 3.610448 2 3 tcp 552 ------- 1 0.0 4.0 28 48
r 3.625168 2 3 tcp 552 ------- 1 0.0 4.0 29 49
r 3.639888 2 3 tcp 552 ------- 1 0.0 4.0 30 50
r 3.654608 2 3 tcp 552 ------- 1 0.0 4.0 31 51
+ 3.805595 2 3 tcp 552 ------- 1 0.0 4.0 32 64
- 3.805595 2 3 tcp 552 ------- 1 0.0 4.0 32 64
+ 3.820315 2 3 tcp 552 ------- 1 0.0 4.0 33 65
- 3.820315 2 3 tcp 552 ------- 1 0.0 4.0 33 65
+ 3.835035 2 3 tcp 552 ------- 1 0.0 4.0 34 66
- 3.835035 2 3 tcp 552 ------- 1 0.0 4.0 34 66
+ 3.849755 2 3 tcp 552 ------- 1 0.0 4.0 35 67
- 3.849755 2 3 tcp 552 ------- 1 0.0 4.0 35 67
+ 3.864475 2 3 tcp 552 ------- 1 0.0 4.0 36 68
- 3.864475 2 3 tcp 552 ------- 1 0.0 4.0 36 68
+ 3.879195 2 3 tcp 552 ------- 1 0.0 4.0 37 69
- 3.879195 2 3 tcp 552 ------- 1 0.0 4.0 37 69
+ 3.893915 2 3 tcp 552 ------- 1 0.0 4.0 38 70
- 3.893915 2 3 tcp 552 ------- 1 0.0 4.0 38 70
+ 3.908635 2 3 tcp 552 ------- 1 0.0 4.0 39 71
- 3.908635 2 3 tcp 552 ------- 1 0.0 4.0 39 71
+ 3.923355 2 3 tcp 552 ------- 1 0.0 4.0 40 72
- 3.923355 2 3 tcp 552 ------- 1 0.0 4.0 40 72
+ 3.938075 2 3 tcp 552 ------- 1 0.0 4.0 41 73
- 3.938075 2 3 tcp 552 ------- 1 0.0 4.0 41 73
+ 3.952795 2 3 tcp 552 ------- 1 0.0 4.0 42 74
- 3.952795 2 3 tcp 552 ------- 1 0.0 4.0 42 74
+ 3.967515 2 3 tcp 552 ------- 1 0.0 4.0 43 75
- 3.967515 2 3 tcp 552 ------- 1 0.0 4.0 43 75
r 4.020315 2 3 tcp 552 ------- 1 0.0 4.0 32 64
r 4.035035 2 3 tcp 552 ------- 1 0.0 4.0 33 65
r 4.049755 2 3 tcp 552 ------- 1 0.0 4.0 34 66
r 4.064475 2 3 tcp 552 ------- 1 0.0 4.0 35 67
r 4.079195 2 3 tcp 552 ------- 1 0.0 4.0 36 68
r 4.093915 2 3 tcp 552 ------- 1 0.0 4.0 37 69
r 4.108635 2 3 tcp 552 ------- 1 0.0 4.0 38 70
r 4.123355 2 3 tcp 552 ------- 1 0.0 4.0 39 71
r 4.138075 2 3 tcp 552 ------- 1 0.0 4.0 40 72
r 4.152795 2 3 tcp 552 ------- 1 0.0 4.0 41 73
r 4.167515 2 3 tcp 552 ------- 1 0.0 4.0 42 74
r 4.182235 2 3 tcp 552 ------- 1 0.0 4.0 43 75
+ 4.333221 2 3 tcp 552 ------- 1 0.0 4.0 44 88
- 4.333221 2 3 tcp 552 ------- 1 0.0 4.0 44 88
+ 4.335429 2 3 tcp 552 ------- 1 0.0 4.0 45 89
- 4.347941 2 3 tcp 552 ------- 1 0.0 4.0 45 89
+ 4.347941 2 3 tcp 552 ------- 1 0.0 4.0 46 90
+ 4.350149 2 3 tcp 552 ------- 1 0.0 4.0 47 91
- 4.362661 2 3 tcp 552 ------- 1 0.0 4.0 46 90
+ 4.362661 2 3 tcp 552 ------- 1 0.0 4.0 48 92
+ 4.364869 2 3 tcp 552 ------- 1 0.0 4.0 49 93
- 4.377381 2 3 tcp 552 ------- 1 0.0 4.0 47 91
+ 4.377381 2 3 tcp 552 ------- 1 0.0 4.0 50 94
+ 4.379589 2 3 tcp 552 ------- 1 0.0 4.0 51 95
- 4.392101 2 3 tcp 552 ------- 1 0.0 4.0 48 92
+ 4.392101 2 3 tcp 552 ------- 1 0.0 4.0 52 96
+ 4.394309 2 3 tcp 552 ------- 1 0.0 4.0 53 97
- 4.406821 2 3 tcp 552 ------- 1 0.0 4.0 49 93
+ 4.406821 2 3 tcp 552 ------- 1 0.0 4.0 54 98
+ 4.409029 2 3 tcp 552 ------- 1 0.0 4.0 55 99
- 4.421541 2 3 tcp 552 ------- 1 0.0 4.0 50 94
+ 4.421541 2 3 tcp 552 ------- 1 0.0 4.0 56 100
+ 4.423749 2 3 tcp 552 ------- 1 0.0 4.0 57 101
- 4.436261 2 3 tcp 552 ------- 1 0.0 4.0 51 95
+ 4.436261 2 3 tcp 552 ------- 1 0.0 4.0 58 102
+ 4.438469 2 3 tcp 552 ------- 1 0.0 4.0 59 103
- 4.450981 2 3 tcp 552 ------- 1 0.0 4.0 52 96
+ 4.450981 2 3 tcp 552 ------- 1 0.0 4.0 60 104
+ 4.453189 2 3 tcp 552 ------- 1 0.0 4.0 61 105
- 4.465701 2 3 tcp 552 ------- 1 0.0 4.0 53 97
+ 4.465701 2 3 tcp 552 ------- 1 0.0 4.0 62 106
+ 4.467909 2 3 tcp 552 ------- 1 0.0 4.0 63 107
d 4.467909 2 3 tcp 552 ------- 1 0.0 4.0 63 107
- 4.480421 2 3 tcp 552 ------- 1 0.0 4.0 54 98
+ 4.480421 2 3 tcp 552 ------- 1 0.0 4.0 64 108
+ 4.482629 2 3 tcp 552 ------- 1 0.0 4.0 65 109
d 4.482629 2 3 tcp 552 ------- 1 0.0 4.0 65 109
- 4.495141 2 3 tcp 552 ------- 1 0.0 4.0 55 99
+ 4.495141 2 3 tcp 552 ------- 1 0.0 4.0 66 110
+ 4.497349 2 3 tcp 552 ------- 1 0.0 4.0 67 111
d 4.497349 2 3 tcp 552 ------- 1 0.0 4.0 67 111
- 4.509861 2 3 tcp 552 ------- 1 0.0 4.0 56 100
- 4.524581 2 3 tcp 552 ------- 1 0.0 4.0 57 101
- 4.539301 2 3 tcp 552 ------- 1 0.0 4.0 58 102
r 4.547941 2 3 tcp 552 ------- 1 0.0 4.0 44 88
- 4.554021 2 3 tcp 552 ------- 1 0.0 4.0 59 103
r 4.562661 2 3 tcp 552 ------- 1 0.0 4.0 45 89
- 4.568741 2 3 tcp 552 ------- 1 0.0 4.0 60 104
r 4.577381 2 3 tcp 552 ------- 1 0.0 4.0 46 90
- 4.583461 2 3 tcp 552 ------- 1 0.0 4.0 61 105
r 4.592101 2 3 tcp 552 ------- 1 0.0 4.0 47 91
- 4.598181 2 3 tcp 552 ------- 1 0.0 4.0 62 106
r 4.606821 2 3 tcp 552 ------- 1 0.0 4.0 48 92
- 4.612901 2 3 tcp 552 ------- 1 0.0 4.0 64 108
r 4.621541 2 3 tcp 552 ------- 1 0.0 4.0 49 93
- 4.627621 2 3 tcp 552 ------- 1 0.0 4.0 66 110
r 4.636261 2 3 tcp 552 ------- 1 0.0 4.0 50 94
r 4.650981 2 3 tcp 552 ------- 1 0.0 4.0 51 95
r 4.665701 2 3 tcp 552 ------- 1 0.0 4.0 52 96
r 4.680421 2 3 tcp 552 ------- 1 0.0 4.0 53 97
r 4.695141 2 3 tcp 552 ------- 1 0.0 4.0 54 98
r 4.709861 2 3 tcp 552 ------- 1 0.0 4.0 55 99
r 4.724581 2 3 tcp 552 ------- 1 0.0 4.0 56 100
r 4.739301 2 3 tcp 552 ------- 1 0.0 4.0 57 101
r 4.754021 2 3 tcp 552 ------- 1 0.0 4.0 58 102
r 4.768741 2 3 tcp 552 ------- 1 0.0 4.0 59 103
r 4.783461 2 3 tcp 552 ------- 1 0.0 4.0 60 104
r 4.798181 2 3 tcp 552 ------- 1 0.0 4.0 61 105
r 4.812901 2 3 tcp 552 ------- 1 0.0 4.0 62 106
r 4.827621 2 3 tcp 552 ------- 1 0.0 4.0 64 108
r 4.842341 2 3 tcp 552 ------- 1 0.0 4.0 66 110
+ 4.860848 2 3 tcp 552 ------- 1 0.0 4.0 68 130
- 4.860848 2 3 tcp 552 ------- 1 0.0 4.0 68 130
+ 4.875568 2 3 tcp 552 ------- 1 0.0 4.0 69 132
- 4.875568 2 3 tcp 552 ------- 1 0.0 4.0 69 132
+ 4.890288 2 3 tcp 552 ------- 1 0.0 4.0 70 134
- 4.890288 2 3 tcp 552 ------- 1 0.0 4.0 70 134
+ 4.905008 2 3 tcp 552 ------- 1 0.0 4.0 71 136
- 4.905008 2 3 tcp 552 ------- 1 0.0 4.0 71 136
+ 4.919728 2 3 tcp 552 ------- 1 0.0 4.0 72 137
- 4.919728 2 3 tcp 552 ------- 1 0.0 4.0 72 137
+ 4.934448 2 3 tcp 552 ------- 1 0.0 4.0 73 138
- 4.934448 2 3 tcp 552 ------- 1 0.0 4.0 73 138
+ 4.949168 2 3 tcp 552 ------- 1 0.0 4.0 74 139
- 4.949168 2 3 tcp 552 ------- 1 0.0 4.0 74 139
+ 4.963888 2 3 tcp 552 ------- 1 0.0 4.0 75 140
- 4.963888 2 3 tcp 552 ------- 1 0.0 4.0 75 140
+ 4.978608 2 3 tcp 552 ------- 1 0.0 4.0 76 141
- 4.978608 2 3 tcp 552 ------- 1 0.0 4.0 76 141
+ 4.993328 2 3 tcp 552 ------- 1 0.0 4.0 77 142
- 4.993328 2 3 tcp 552 ------- 1 0.0 4.0 77 142
+ 5.008048 2 3 tcp 552 ------- 1 0.0 4.0 78 143
- 5.008048 2 3 tcp 552 ------- 1 0.0 4.0 78 143
+ 5.022768 2 3 tcp 552 ------- 1 0.0 4.0 79 144
- 5.022768 2 3 tcp 552 ------- 1 0.0 4.0 79 144
+ 5.037488 2 3 tcp 552 ------- 1 0.0 4.0 80 145
- 5.037488 2 3 tcp 552 ------- 1 0.0 4.0 80 145
+ 5.052208 2 3 tcp 552 ------- 1 0.0 4.0 81 146
- 5.052208 2 3 tcp 552 ------- 1 0.0 4.0 81 146
+ 5.066928 2 3 tcp 552 ------- 1 0.0 4.0 82 147
- 5.066928 2 3 tcp 552 ------- 1 0.0 4.0 82 147
r 5.075568 2 3 tcp 552 ------- 1 0.0 4.0 68 130
+ 5.081648 2 3 tcp 552 ------- 1 0.0 4.0 83 148
- 5.081648 2 3 tcp 552 ------- 1 0.0 4.0 83 148
r 5.090288 2 3 tcp 552 ------- 1 0.0 4.0 69 132
+ 5.096368 2 3 tcp 552 ------- 1 0.0 4.0 84 149
- 5.096368 2 3 tcp 552 ------- 1 0.0 4.0 84 149
r 5.105008 2 3 tcp 552 ------- 1 0.0 4.0 70 134
+ 5.111088 2 3 tcp 552 ------- 1 0.0 4.0 85 150
- 5.111088 2 3 tcp 552 ------- 1 0.0 4.0 85 150
r 5.119728 2 3 tcp 552 ------- 1 0.0 4.0 71 136
+ 5.125808 2 3 tcp 552 ------- 1 0.0 4.0 86 151
- 5.125808 2 3 tcp 552 ------- 1 0.0 4.0 86 151
r 5.134448 2 3 tcp 552 ------- 1 0.0 4.0 72 137
r 5.149168 2 3 tcp 552 ------- 1 0.0 4.0 73 138
r 5.163888 2 3 tcp 552 ------- 1 0.0 4.0 74 139
r 5.178608 2 3 tcp 552 ------- 1 0.0 4.0 75 140
r 5.193328 2 3 tcp 552 ------- 1 0.0 4.0 76 141
r 5.208048 2 3 tcp 552 ------- 1 0.0 4.0 77 142
r 5.222768 2 3 tcp 552 ------- 1 0.0 4.0 78 143
r 5.237488 2 3 tcp 552 ------- 1 0.0 4.0 79 144
r 5.252208 2 3 tcp 552 ------- 1 0.0 4.0 80 145
r 5.266928 2 3 tcp 552 ------- 1 0.0 4.0 81 146
r 5.281648 2 3 tcp 552 ------- 1 0.0 4.0 82 147
r 5.296368 2 3 tcp 552 ------- 1 0.0 4.0 83 148
r 5.311088 2 3 tcp 552 ------- 1 0.0 4.0 84 149
r 5.325808 2 3 tcp 552 ------- 1 0.0 4.0 85 150
r 5.340528 2 3 tcp 552 ------- 1 0.0 4.0 86 151
+ 5.388475 2 3 tcp 552 ------- 1 0.0 4.0 63 170
- 5.388475 2 3 tcp 552 ------- 1 0.0 4.0 63 170
+ 5.447355 2 3 tcp 552 ------- 1 0.0 4.0 87 172
- 5.447355 2 3 tcp 552 ------- 1 0.0 4.0 87 172
+ 5.462075 2 3 tcp 552 ------- 1 0.0 4.0 88 173
- 5.462075 2 3 tcp 552 ------- 1 0.0 4.0 88 173
+ 5.476795 2 3 tcp 552 ------- 1 0.0 4.0 89 174
- 5.476795 2 3 tcp 552 ------- 1 0.0 4.0 89 174
+ 5.491515 2 3 tcp 552 ------- 1 0.0 4.0 90 175
- 5.491515 2 3 tcp 552 ------- 1 0.0 4.0 90 175
+ 5.506235 2 3 tcp 552 ------- 1 0.0 4.0 91 176
- 5.506235 2 3 tcp 552 ------- 1 0.0 4.0 91 176
+ 5.520955 2 3 tcp 552 ------- 1 0.0 4.0 92 177
- 5.520955 2 3 tcp 552 ------- 1 0.0 4.0 92 177
+ 5.535675 2 3 tcp 552 ------- 1 0.0 4.0 93 178
- 5.535675 2 3 tcp 552 ------- 1 0.0 4.0 93 178
+ 5.550395 2 3 tcp 552 ------- 1 0.0 4.0 94 179
- 5.550395 2 3 tcp 552 ------- 1 0.0 4.0 94 179
+ 5.565115 2 3 tcp 552 ------- 1 0.0 4.0 95 180
- 5.565115 2 3 tcp 552 ------- 1 0.0 4.0 95 180
+ 5.579835 2 3 tcp 552 ------- 1 0.0 4.0 96 181
- 5.579835 2 3 tcp 552 ------- 1 0.0 4.0 96 181
+ 5.594555 2 3 tcp 552 ------- 1 0.0 4.0 97 182
- 5.594555 2 3 tcp 552 ------- 1 0.0 4.0 97 182
r 5.603195 2 3 tcp 552 ------- 1 0.0 4.0 63 170
+ 5.609275 2 3 tcp 552 ------- 1 0.0 4.0 98 183
- 5.609275 2 3 tcp 552 ------- 1 0.0 4.0 98 183
+ 5.623995 2 3 tcp 552 ------- 1 0.0 4.0 99 184
- 5.623995 2 3 tcp 552 ------- 1 0.0 4.0 99 184
+ 5.638715 2 3 tcp 552 ------- 1 0.0 4.0 100 185
- 5.638715 2 3 tcp 552 ------- 1 0.0 4.0 100 185
+ 5.653435 2 3 tcp 552 ------- 1 0.0 4.0 101 186
- 5.653435 2 3 tcp 552 ------- 1 0.0 4.0 101 186
r 5.662075 2 3 tcp 552 ------- 1 0.0 4.0 87 172
r 5.676795 2 3 tcp 552 ------- 1 0.0 4.0 88 173
r 5.691515 2 3 tcp 552 ------- 1 0.0 4.0 89 174
r 5.706235 2 3 tcp 552 ------- 1 0.0 4.0 90 175
r 5.720955 2 3 tcp 552 ------- 1 0.0 4.0 91 176
r 5.735675 2 3 tcp 552 ------- 1 0.0 4.0 92 177
r 5.750395 2 3 tcp 552 ------- 1 0.0 4.0 93 178
r 5.765115 2 3 tcp 552 ------- 1 0.0 4.0 94 179
r 5.779835 2 3 tcp 552 ------- 1 0.0 4.0 95 180
r 5.794555 2 3 tcp 552 ------- 1 0.0 4.0 96 181
r 5.809275 2 3 tcp 552 ------- 1 0.0 4.0 97 182
r 5.823995 2 3 tcp 552 ------- 1 0.0 4.0 98 183
r 5.838715 2 3 tcp 552 ------- 1 0.0 4.0 99 184
r 5.853435 2 3 tcp 552 ------- 1 0.0 4.0 100 185
r 5.868155 2 3 tcp 552 ------- 1 0.0 4.0 101 186
+ 5.916101 2 3 tcp 552 ------- 1 0.0 4.0 65 202
- 5.916101 2 3 tcp 552 ------- 1 0.0 4.0 65 202
r 6.130821 2 3 tcp 552 ------- 1 0.0 4.0 65 202
+ 7.763728 2 3 tcp 552 ------- 1 0.0 4.0 67 205
- 7.763728 2 3 tcp 552 ------- 1 0.0 4.0 67 205
+ 7.765936 2 3 tcp 552 ------- 1 0.0 4.0 68 206
- 7.778448 2 3 tcp 552 ------- 1 0.0 4.0 68 206
r 7.978448 2 3 tcp 552 ------- 1 0.0 4.0 67 205
r 7.993168 2 3 tcp 552 ------- 1 0.0 4.0 68 206
+ 8.291355 2 3 tcp 552 ------- 1 0.0 4.0 102 209
- 8.291355 2 3 tcp 552 ------- 1 0.0 4.0 102 209
+ 8.293563 2 3 tcp 552 ------- 1 0.0 4.0 103 210
+ 8.295771 2 3 tcp 552 ------- 1 0.0 4.0 104 211
- 8.306075 2 3 tcp 552 ------- 1 0.0 4.0 103 210
- 8.320795 2 3 tcp 552 ------- 1 0.0 4.0 104 211
r 8.506075 2 3 tcp 552 ------- 1 0.0 4.0 102 209
r 8.520795 2 3 tcp 552 ------- 1 0.0 4.0 103 210
r 8.535515 2 3 tcp 552 ------- 1 0.0 4.0 104 211
+ 8.818981 2 3 tcp 552 ------- 1 0.0 4.0 105 215
- 8.818981 2 3 tcp 552 ------- 1 0.0 4.0 105 215
+ 8.833701 2 3 tcp 552 ------- 1 0.0 4.0 106 216
- 8.833701 2 3 tcp 552 ------- 1 0.0 4.0 106 216
+ 8.848421 2 3 tcp 552 ------- 1 0.0 4.0 107 217
- 8.848421 2 3 tcp 552 ------- 1 0.0 4.0 107 217
r 9.033701 2 3 tcp 552 ------- 1 0.0 4.0 105 215
r 9.048421 2 3 tcp 552 ------- 1 0.0 4.0 106 216
r 9.063141 2 3 tcp 552 ------- 1 0.0 4.0 107 217
+ 9.346608 2 3 tcp 552 ------- 1 0.0 4.0 108 221
- 9.346608 2 3 tcp 552 ------- 1 0.0 4.0 108 221
+ 9.348816 2 3 tcp 552 ------- 1 0.0 4.0 109 222
- 9.361328 2 3 tcp 552 ------- 1 0.0 4.0 109 222
+ 9.361328 2 3 tcp 552 ------- 1 0.0 4.0 110 223
+ 9.363536 2 3 tcp 552 ------- 1 0.0 4.0 111 224
- 9.376048 2 3 tcp 552 ------- 1 0.0 4.0 110 223
+ 9.376048 2 3 tcp 552 ------- 1 0.0 4.0 112 225
+ 9.378256 2 3 tcp 552 ------- 1 0.0 4.0 113 226
- 9.390768 2 3 tcp 552 ------- 1 0.0 4.0 111 224
- 9.405488 2 3 tcp 552 ------- 1 0.0 4.0 112 225
- 9.420208 2 3 tcp 552 ------- 1 0.0 4.0 113 226
r 9.561328 2 3 tcp 552 ------- 1 0.0 4.0 108 221
r 9.576048 2 3 tcp 552 ------- 1 0.0 4.0 109 222
r 9.590768 2 3 tcp 552 ------- 1 0.0 4.0 110 223
r 9.605488 2 3 tcp 552 ------- 1 0.0 4.0 111 224
r 9.620208 2 3 tcp 552 ------- 1 0.0 4.0 112 225
r 9.634928 2 3 tcp 552 ------- 1 0.0 4.0 113 226
+ 9.874235 2 3 tcp 552 ------- 1 0.0 4.0 114 233
- 9.874235 2 3 tcp 552 ------- 1 0.0 4.0 114 233
+ 9.888955 2 3 tcp 552 ------- 1 0.0 4.0 115 234
- 9.888955 2 3 tcp 552 ------- 1 0.0 4.0 115 234
+ 9.903675 2 3 tcp 552 ------- 1 0.0 4.0 116 235
- 9.903675 2 3 tcp 552 ------- 1 0.0 4.0 116 235
+ 9.918395 2 3 tcp 552 ------- 1 0.0 4.0 117 236
- 9.918395 2 3 tcp 552 ------- 1 0.0 4.0 117 236
+ 9.933115 2 3 tcp 552 ------- 1 0.0 4.0 118 237
- 9.933115 2 3 tcp 552 ------- 1 0.0 4.0 118 237
+ 9.947835 2 3 tcp 552 ------- 1 0.0 4.0 119 238
- 9.947835 2 3 tcp 552 ------- 1 0.0 4.0 119 238
r 10.088955 2 3 tcp 552 ------- 1 0.0 4.0 114 233
r 10.103675 2 3 tcp 552 ------- 1 0.0 4.0 115 234
r 10.118395 2 3 tcp 552 ------- 1 0.0 4.0 116 235
r 10.133115 2 3 tcp 552 ------- 1 0.0 4.0 117 236
r 10.147835 2 3 tcp 552 ------- 1 0.0 4.0 118 237
r 10.162555 2 3 tcp 552 ------- 1 0.0 4.0 119 238
+ 10.401861 2 3 tcp 552 ------- 1 0.0 4.0 120 245
- 10.401861 2 3 tcp 552 ------- 1 0.0 4.0 120 245
+ 10.404069 2 3 tcp 552 ------- 1 0.0 4.0 121 246
- 10.416581 2 3 tcp 552 ------- 1 0.0 4.0 121 246
+ 10.416581 2 3 tcp 552 ------- 1 0.0 4.0 122 247
+ 10.418789 2 3 tcp 552 ------- 1 0.0 4.0 123 248
- 10.431301 2 3 tcp 552 ------- 1 0.0 4.0 122 247
+ 10.431301 2 3 tcp 552 ------- 1 0.0 4.0 124 249
+ 10.433509 2 3 tcp 552 ------- 1 0.0 4.0 125 250
- 10.446021 2 3 tcp 552 ------- 1 0.0 4.0 123 248
+ 10.446021 2 3 tcp 552 ------- 1 0.0 4.0 126 251
- 10.460741 2 3 tcp 552 ------- 1 0.0 4.0 124 249
+ 10.460741 2 3 tcp 552 ------- 1 0.0 4.0 127 252
- 10.475461 2 3 tcp 552 ------- 1 0.0 4.0 125 250
+ 10.475461 2 3 tcp 552 ------- 1 0.0 4.0 128 253
- 10.490181 2 3 tcp 552 ------- 1 0.0 4.0 126 251
- 10.504901 2 3 tcp 552 ------- 1 0.0 4.0 127 252
- 10.519621 2 3 tcp 552 ------- 1 0.0 4.0 128 253
r 10.616581 2 3 tcp 552 ------- 1 0.0 4.0 120 245
r 10.631301 2 3 tcp 552 ------- 1 0.0 4.0 121 246
r 10.646021 2 3 tcp 552 ------- 1 0.0 4.0 122 247
r 10.660741 2 3 tcp 552 ------- 1 0.0 4.0 123 248
r 10.675461 2 3 tcp 552 ------- 1 0.0 4.0 124 249
r 10.690181 2 3 tcp 552 ------- 1 0.0 4.0 125 250
r 10.704901 2 3 tcp 552 ------- 1 0.0 4.0 126 251
r 10.719621 2 3 tcp 552 ------- 1 0.0 4.0 127 252
r 10.734341 2 3 tcp 552 ------- 1 0.0 4.0 128 253
+ 10.929488 2 3 tcp 552 ------- 1 0.0 4.0 129 263
- 10.929488 2 3 tcp 552 ------- 1 0.0 4.0 129 263
+ 10.944208 2 3 tcp 552 ------- 1 0.0 4.0 130 264
- 10.944208 2 3 tcp 552 ------- 1 0.0 4.0 130 264
+ 10.958928 2 3 tcp 552 ------- 1 0.0 4.0 131 265
- 10.958928 2 3 tcp 552 ------- 1 0.0 4.0 131 265
+ 10.973648 2 3 tcp 552 ------- 1 0.0 4.0 132 266
- 10.973648 2 3 tcp 552 ------- 1 0.0 4.0 132 266
+ 10.988368 2 3 tcp 552 ------- 1 0.0 4.0 133 267
- 10.988368 2 3 tcp 552 ------- 1 0.0 4.0 133 267
+ 11.003088 2 3 tcp 552 ------- 1 0.0 4.0 134 268
- 11.003088 2 3 tcp 552 ------- 1 0.0 4.0 134 268
+ 11.017808 2 3 tcp 552 ------- 1 0.0 4.0 135 269
- 11.017808 2 3 tcp 552 ------- 1 0.0 4.0 135 269
+ 11.032528 2 3 tcp 552 ------- 1 0.0 4.0 136 270
- 11.032528 2 3 tcp 552 ------- 1 0.0 4.0 136 270
+ 11.047248 2 3 tcp 552 ------- 1 0.0 4.0 137 271
- 11.047248 2 3 tcp 552 ------- 1 0.0 4.0 137 271
r 11.144208 2 3 tcp 552 ------- 1 0.0 4.0 129 263
r 11.158928 2 3 tcp 552 ------- 1 0.0 4.0 130 264
r 11.173648 2 3 tcp 552 ------- 1 0.0 4.0 131 265
r 11.188368 2 3 tcp 552 ------- 1 0.0 4.0 132 266
r 11.203088 2 3 tcp 552 ------- 1 0.0 4.0 133 267
r 11.217808 2 3 tcp 552 ------- 1 0.0 4.0 134 268
r 11.232528 2 3 tcp 552 ------- 1 0.0 4.0 135 269
r 11.247248 2 3 tcp 552 ------- 1 0.0 4.0 136 270
r 11.261968 2 3 tcp 552 ------- 1 0.0 4.0 137 271
+ 11.457115 2 3 tcp 552 ------- 1 0.0 4.0 138 281
- 11.457115 2 3 tcp 552 ------- 1 0.0 4.0 138 281
+ 11.459323 2 3 tcp 552 ------- 1 0.0 4.0 139 282
- 11.471835 2 3 tcp 552 ------- 1 0.0 4.0 139 282
+ 11.471835 2 3 tcp 552 ------- 1 0.0 4.0 140 283
- 11.486555 2 3 tcp 552 ------- 1 0.0 4.0 140 283
+ 11.486555 2 3 tcp 552 ------- 1 0.0 4.0 141 284
- 11.501275 2 3 tcp 552 ------- 1 0.0 4.0 141 284
+ 11.501275 2 3 tcp 552 ------- 1 0.0 4.0 142 285
- 11.515995 2 3 tcp 552 ------- 1 0.0 4.0 142 285
+ 11.515995 2 3 tcp 552 ------- 1 0.0 4.0 143 286
- 11.530715 2 3 tcp 552 ------- 1 0.0 4.0 143 286
+ 11.530715 2 3 tcp 552 ------- 1 0.0 4.0 144 287
- 11.545435 2 3 tcp 552 ------- 1 0.0 4.0 144 287
+ 11.545435 2 3 tcp 552 ------- 1 0.0 4.0 145 288
- 11.560155 2 3 tcp 552 ------- 1 0.0 4.0 145 288
+ 11.560155 2 3 tcp 552 ------- 1 0.0 4.0 146 289
- 11.574875 2 3 tcp 552 ------- 1 0.0 4.0 146 289
+ 11.574875 2 3 tcp 552 ------- 1 0.0 4.0 147 290
- 11.589595 2 3 tcp 552 ------- 1 0.0 4.0 147 290
r 11.671835 2 3 tcp 552 ------- 1 0.0 4.0 138 281
r 11.686555 2 3 tcp 552 ------- 1 0.0 4.0 139 282
r 11.701275 2 3 tcp 552 ------- 1 0.0 4.0 140 283
r 11.715995 2 3 tcp 552 ------- 1 0.0 4.0 141 284
r 11.730715 2 3 tcp 552 ------- 1 0.0 4.0 142 285
r 11.745435 2 3 tcp 552 ------- 1 0.0 4.0 143 286
r 11.760155 2 3 tcp 552 ------- 1 0.0 4.0 144 287
r 11.774875 2 3 tcp 552 ------- 1 0.0 4.0 145 288
r 11.789595 2 3 tcp 552 ------- 1 0.0 4.0 146 289
r 11.804315 2 3 tcp 552 ------- 1 0.0 4.0 147 290
+ 11.984741 2 3 tcp 552 ------- 1 0.0 4.0 148 301
- 11.984741 2 3 tcp 552 ------- 1 0.0 4.0 148 301
+ 11.999461 2 3 tcp 552 ------- 1 0.0 4.0 149 302
- 11.999461 2 3 tcp 552 ------- 1 0.0 4.0 149 302
+ 12.001669 2 3 tcp 552 ------- 1 0.0 4.0 150 303
- 12.014181 2 3 tcp 552 ------- 1 0.0 4.0 150 303
+ 12.014181 2 3 tcp 552 ------- 1 0.0 4.0 151 304
- 12.028901 2 3 tcp 552 ------- 1 0.0 4.0 151 304
+ 12.028901 2 3 tcp 552 ------- 1 0.0 4.0 152 305
- 12.043621 2 3 tcp 552 ------- 1 0.0 4.0 152 305
+ 12.043621 2 3 tcp 552 ------- 1 0.0 4.0 153 306
- 12.058341 2 3 tcp 552 ------- 1 0.0 4.0 153 306
+ 12.058341 2 3 tcp 552 ------- 1 0.0 4.0 154 307
- 12.073061 2 3 tcp 552 ------- 1 0.0 4.0 154 307
+ 12.073061 2 3 tcp 552 ------- 1 0.0 4.0 155 308
- 12.087781 2 3 tcp 552 ------- 1 0.0 4.0 155 308
+ 12.087781 2 3 tcp 552 ------- 1 0.0 4.0 156 309
- 12.102501 2 3 tcp 552 ------- 1 0.0 4.0 156 309
+ 12.102501 2 3 tcp 552 ------- 1 0.0 4.0 157 310
- 12.117221 2 3 tcp 552 ------- 1 0.0 4.0 157 310
+ 12.117221 2 3 tcp 552 ------- 1 0.0 4.0 158 311
- 12.131941 2 3 tcp 552 ------- 1 0.0 4.0 158 311
r 12.199461 2 3 tcp 552 ------- 1 0.0 4.0 148 301
r 12.214181 2 3 tcp 552 ------- 1 0.0 4.0 149 302
r 12.228901 2 3 tcp 552 ------- 1 0.0 4.0 150 303
r 12.243621 2 3 tcp 552 ------- 1 0.0 4.0 151 304
r 12.258341 2 3 tcp 552 ------- 1 0.0 4.0 152 305
r 12.273061 2 3 tcp 552 ------- 1 0.0 4.0 153 306
r 12.287781 2 3 tcp 552 ------- 1 0.0 4.0 154 307
r 12.302501 2 3 tcp 552 ------- 1 0.0 4.0 155 308
r 12.317221 2 3 tcp 552 ------- 1 0.0 4.0 156 309
r 12.331941 2 3 tcp 552 ------- 1 0.0 4.0 157 310
r 12.346661 2 3 tcp 552 ------- 1 0.0 4.0 158 311
+ 12.512368 2 3 tcp 552 ------- 1 0.0 4.0 159 323
- 12.512368 2 3 tcp 552 ------- 1 0.0 4.0 159 323
+ 12.527088 2 3 tcp 552 ------- 1 0.0 4.0 160 324
- 12.527088 2 3 tcp 552 ------- 1 0.0 4.0 160 324
+ 12.541808 2 3 tcp 552 ------- 1 0.0 4.0 161 325
- 12.541808 2 3 tcp 552 ------- 1 0.0 4.0 161 325
+ 12.544016 2 3 tcp 552 ------- 1 0.0 4.0 162 326
- 12.556528 2 3 tcp 552 ------- 1 0.0 4.0 162 326
+ 12.556528 2 3 tcp 552 ------- 1 0.0 4.0 163 327
- 12.571248 2 3 tcp 552 ------- 1 0.0 4.0 163 327
+ 12.571248 2 3 tcp 552 ------- 1 0.0 4.0 164 328
- 12.585968 2 3 tcp 552 ------- 1 0.0 4.0 164 328
+ 12.585968 2 3 tcp 552 ------- 1 0.0 4.0 165 329
- 12.600688 2 3 tcp 552 ------- 1 0.0 4.0 165 329
+ 12.600688 2 3 tcp 552 ------- 1 0.0 4.0 166 330
- 12.615408 2 3 tcp 552 ------- 1 0.0 4.0 166 330
+ 12.615408 2 3 tcp 552 ------- 1 0.0 4.0 167 331
- 12.630128 2 3 tcp 552 ------- 1 0.0 4.0 167 331
+ 12.630128 2 3 tcp 552 ------- 1 0.0 4.0 168 332
- 12.644848 2 3 tcp 552 ------- 1 0.0 4.0 168 332
+ 12.644848 2 3 tcp 552 ------- 1 0.0 4.0 169 333
- 12.659568 2 3 tcp 552 ------- 1 0.0 4.0 169 333
+ 12.659568 2 3 tcp 552 ------- 1 0.0 4.0 170 334
- 12.674288 2 3 tcp 552 ------- 1 0.0 4.0 170 334
r 12.727088 2 3 tcp 552 ------- 1 0.0 4.0 159 323
r 12.741808 2 3 tcp 552 ------- 1 0.0 4.0 160 324
r 12.756528 2 3 tcp 552 ------- 1 0.0 4.0 161 325
r 12.771248 2 3 tcp 552 ------- 1 0.0 4.0 162 326
r 12.785968 2 3 tcp 552 ------- 1 0.0 4.0 163 327
r 12.800688 2 3 tcp 552 ------- 1 0.0 4.0 164 328
r 12.815408 2 3 tcp 552 ------- 1 0.0 4.0 165 329
r 12.830128 2 3 tcp 552 ------- 1 0.0 4.0 166 330
r 12.844848 2 3 tcp 552 ------- 1 0.0 4.0 167 331
r 12.859568 2 3 tcp 552 ------- 1 0.0 4.0 168 332
r 12.874288 2 3 tcp 552 ------- 1 0.0 4.0 169 333
r 12.889008 2 3 tcp 552 ------- 1 0.0 4.0 170 334
+ 13.039995 2 3 tcp 552 ------- 1 0.0 4.0 171 347
- 13.039995 2 3 tcp 552 ------- 1 0.0 4.0 171 347
+ 13.054715 2 3 tcp 552 ------- 1 0.0 4.0 172 348
- 13.054715 2 3 tcp 552 ------- 1 0.0 4.0 172 348
+ 13.069435 2 3 tcp 552 ------- 1 0.0 4.0 173 349
- 13.069435 2 3 tcp 552 ------- 1 0.0 4.0 173 349
+ 13.084155 2 3 tcp 552 ------- 1 0.0 4.0 174 350
- 13.084155 2 3 tcp 552 ------- 1 0.0 4.0 174 350
+ 13.086363 2 3 tcp 552 ------- 1 0.0 4.0 175 351
- 13.098875 2 3 tcp 552 ------- 1 0.0 4.0 175 351
+ 13.098875 2 3 tcp 552 ------- 1 0.0 4.0 176 352
- 13.113595 2 3 tcp 552 ------- 1 0.0 4.0 176 352
+ 13.113595 2 3 tcp 552 ------- 1 0.0 4.0 177 353
- 13.128315 2 3 tcp 552 ------- 1 0.0 4.0 177 353
+ 13.128315 2 3 tcp 552 ------- 1 0.0 4.0 178 354
- 13.143035 2 3 tcp 552 ------- 1 0.0 4.0 178 354
+ 13.143035 2 3 tcp 552 ------- 1 0.0 4.0 179 355
- 13.157755 2 3 tcp 552 ------- 1 0.0 4.0 179 355
+ 13.157755 2 3 tcp 552 ------- 1 0.0 4.0 180 356
- 13.172475 2 3 tcp 552 ------- 1 0.0 4.0 180 356
+ 13.172475 2 3 tcp 552 ------- 1 0.0 4.0 181 357
- 13.187195 2 3 tcp 552 ------- 1 0.0 4.0 181 357
+ 13.187195 2 3 tcp 552 ------- 1 0.0 4.0 182 358
- 13.201915 2 3 tcp 552 ------- 1 0.0 4.0 182 358
+ 13.201915 2 3 tcp 552 ------- 1 0.0 4.0 183 359
- 13.216635 2 3 tcp 552 ------- 1 0.0 4.0 183 359
r 13.254715 2 3 tcp 552 ------- 1 0.0 4.0 171 347
r 13.269435 2 3 tcp 552 ------- 1 0.0 4.0 172 348
r 13.284155 2 3 tcp 552 ------- 1 0.0 4.0 173 349
r 13.298875 2 3 tcp 552 ------- 1 0.0 4.0 174 350
r 13.313595 2 3 tcp 552 ------- 1 0.0 4.0 175 351
r 13.328315 2 3 tcp 552 ------- 1 0.0 4.0 176 352
r 13.343035 2 3 tcp 552 ------- 1 0.0 4.0 177 353
r 13.357755 2 3 tcp 552 ------- 1 0.0 4.0 178 354
r 13.372475 2 3 tcp 552 ------- 1 0.0 4.0 179 355
r 13.387195 2 3 tcp 552 ------- 1 0.0 4.0 180 356
r 13.401915 2 3 tcp 552 ------- 1 0.0 4.0 181 357
r 13.416635 2 3 tcp 552 ------- 1 0.0 4.0 182 358
r 13.431355 2 3 tcp 552 ------- 1 0.0 4.0 183 359
+ 13.567621 2 3 tcp 552 ------- 1 0.0 4.0 184 373
- 13.567621 2 3 tcp 552 ------- 1 0.0 4.0 184 373
+ 13.582341 2 3 tcp 552 ------- 1 0.0 4.0 185 374
- 13.582341 2 3 tcp 552 ------- 1 0.0 4.0 185 374
+ 13.597061 2 3 tcp 552 ------- 1 0.0 4.0 186 375
- 13.597061 2 3 tcp 552 ------- 1 0.0 4.0 186 375
+ 13.611781 2 3 tcp 552 ------- 1 0.0 4.0 187 376
- 13.611781 2 3 tcp 552 ------- 1 0.0 4.0 187 376
+ 13.626501 2 3 tcp 552 ------- 1 0.0 4.0 188 377
- 13.626501 2 3 tcp 552 ------- 1 0.0 4.0 188 377
+ 13.628709 2 3 tcp 552 ------- 1 0.0 4.0 189 378
- 13.641221 2 3 tcp 552 ------- 1 0.0 4.0 189 378
+ 13.641221 2 3 tcp 552 ------- 1 0.0 4.0 190 379
- 13.655941 2 3 tcp 552 ------- 1 0.0 4.0 190 379
+ 13.655941 2 3 tcp 552 ------- 1 0.0 4.0 191 380
- 13.670661 2 3 tcp 552 ------- 1 0.0 4.0 191 380
+ 13.670661 2 3 tcp 552 ------- 1 0.0 4.0 192 381
- 13.685381 2 3 tcp 552 ------- 1 0.0 4.0 192 381
+ 13.685381 2 3 tcp 552 ------- 1 0.0 4.0 193 382
- 13.700101 2 3 tcp 552 ------- 1 0.0 4.0 193 382
+ 13.700101 2 3 tcp 552 ------- 1 0.0 4.0 194 383
- 13.714821 2 3 tcp 552 ------- 1 0.0 4.0 194 383
+ 13.714821 2 3 tcp 552 ------- 1 0.0 4.0 195 384
- 13.729541 2 3 tcp 552 ------- 1 0.0 4.0 195 384
+ 13.729541 2 3 tcp 552 ------- 1 0.0 4.0 196 385
- 13.744261 2 3 tcp 552 ------- 1 0.0 4.0 196 385
+ 13.744261 2 3 tcp 552 ------- 1 0.0 4.0 197 386
- 13.758981 2 3 tcp 552 ------- 1 0.0 4.0 197 386
r 13.782341 2 3 tcp 552 ------- 1 0.0 4.0 184 373
r 13.797061 2 3 tcp 552 ------- 1 0.0 4.0 185 374
r 13.811781 2 3 tcp 552 ------- 1 0.0 4.0 186 375
r 13.826501 2 3 tcp 552 ------- 1 0.0 4.0 187 376
r 13.841221 2 3 tcp 552 ------- 1 0.0 4.0 188 377
r 13.855941 2 3 tcp 552 ------- 1 0.0 4.0 189 378
r 13.870661 2 3 tcp 552 ------- 1 0.0 4.0 190 379
r 13.885381 2 3 tcp 552 ------- 1 0.0 4.0 191 380
r 13.900101 2 3 tcp 552 ------- 1 0.0 4.0 192 381
r 13.914821 2 3 tcp 552 ------- 1 0.0 4.0 193 382
r 13.929541 2 3 tcp 552 ------- 1 0.0 4.0 194 383
r 13.944261 2 3 tcp 552 ------- 1 0.0 4.0 195 384
r 13.958981 2 3 tcp 552 ------- 1 0.0 4.0 196 385
r 13.973701 2 3 tcp 552 ------- 1 0.0 4.0 197 386
+ 14.095248 2 3 tcp 552 ------- 1 0.0 4.0 198 401
- 14.095248 2 3 tcp 552 ------- 1 0.0 4.0 198 401
+ 14.109968 2 3 tcp 552 ------- 1 0.0 4.0 199 402
- 14.109968 2 3 tcp 552 ------- 1 0.0 4.0 199 402
+ 14.124688 2 3 tcp 552 ------- 1 0.0 4.0 200 403
- 14.124688 2 3 tcp 552 ------- 1 0.0 4.0 200 403
+ 14.139408 2 3 tcp 552 ------- 1 0.0 4.0 201 404
- 14.139408 2 3 tcp 552 ------- 1 0.0 4.0 201 404
+ 14.154128 2 3 tcp 552 ------- 1 0.0 4.0 202 405
- 14.154128 2 3 tcp 552 ------- 1 0.0 4.0 202 405
+ 14.168848 2 3 tcp 552 ------- 1 0.0 4.0 203 406
- 14.168848 2 3 tcp 552 ------- 1 0.0 4.0 203 406
+ 14.171056 2 3 tcp 552 ------- 1 0.0 4.0 204 407
- 14.183568 2 3 tcp 552 ------- 1 0.0 4.0 204 407