V -t * -v 1.0a5 -a 0
A -t * -n 1 -p 0 -o 0x7fffffff -c 30 -a 1
A -t * -h 1 -m 1073741823 -s 0
c -t * -i 4 -n Yellow
c -t * -i 1 -n Red
c -t * -i 2 -n Green
c -t * -i 3 -n Blue
n -t * -a 4 -s 4 -S UP -v circle -c black -i black
n -t * -a 0 -s 0 -S UP -v circle -c black -i black
n -t * -a 1 -s 1 -S UP -v circle -c black -i black
n -t * -a 2 -s 2 -S UP -v circle -c black -i black
n -t * -a 3 -s 3 -S UP -v circle -c black -i black
l -t * -s 0 -d 1 -S UP -r 1000000 -D 0.02 -c black -o right
l -t * -s 1 -d 2 -S UP -r 2000000 -D 0.029999999999999999 -c black -o right
l -t * -s 2 -d 3 -S UP -r 2000000 -D 0.050000000000000003 -c black -o right
l -t * -s 3 -d 4 -S UP -r 4000000 -D 0.040000000000000001 -c black -o right
q -t * -s 4 -d 3 -a 1.5
q -t * -s 3 -d 4 -a 1.5
q -t * -s 1 -d 0 -a 0.5
q -t * -s 0 -d 1 -a 0.5
+ -t 0.1 -s 3 -d 2 -p cbr -e 1000 -c 3 -i 0 -a 3 -x {3.0 2.1 0 ------- null}
- -t 0.1 -s 3 -d 2 -p cbr -e 1000 -c 3 -i 0 -a 3 -x {3.0 2.1 0 ------- null}
h -t 0.1 -s 3 -d 2 -p cbr -e 1000 -c 3 -i 0 -a 3 -x {3.0 2.1 -1 ------- null}
+ -t 0.108 -s 3 -d 2 -p cbr -e 1000 -c 3 -i 1 -a 3 -x {3.0 2.1 1 ------- null}
- -t 0.108 -s 3 -d 2 -p cbr -e 1000 -c 3 -i 1 -a 3 -x {3.0 2.1 1 ------- null}
h -t 0.108 -s 3 -d 2 -p cbr -e 1000 -c 3 -i 1 -a 3 -x {3.0 2.1 -1 ------- null}
+ -t 0.116 -s 3 -d 2 -p cbr -e 1000 -c 3 -i 2 -a 3 -x {3.0 2.1 2 ------- null}
- -t 0.116 -s 3 -d 2 -p cbr -e 1000 -c 3 -i 2 -a 3 -x {3.0 2.1 2 ------- null}
h -t 0.116 -s 3 -d 2 -p cbr -e 1000 -c 3 -i 2 -a 3 -x {3.0 2.1 -1 ------- null}
+ -t 0.124 -s 3 -d 2 -p cbr -e 1000 -c 3 -i 3 -a 3 -x {3.0 2.1 3 ------- null}
- -t 0.124 -s 3 -d 2 -p cbr -e 1000 -c 3 -i 3 -a 3 -x {3.0 2.1 3 ------- null}
h -t 0.124 -s 3 -d 2 -p cbr -e 1000 -c 3 -i 3 -a 3 -x {3.0 2.1 -1 ------- null}
+ -t 0.132 -s 3 -d 2 -p cbr -e 1000 -c 3 -i 4 -a 3 -x {3.0 2.1 4 ------- null}
- -t 0.132 -s 3 -d 2 -p cbr -e 1000 -c 3 -i 4 -a 3 -x {3.0 2.1 4 ------- null}
h -t 0.132 -s 3 -d 2 -p cbr -e 1000 -c 3 -i 4 -a 3 -x {3.0 2.1 -1 ------- null}
+ -t 0.14 -s 3 -d 2 -p cbr -e 1000 -c 3 -i 5 -a 3 -x {3.0 2.1 5 ------- null}
- -t 0.14 -s 3 -d 2 -p cbr -e 1000 -c 3 -i 5 -a 3 -x {3.0 2.1 5 ------- null}
h -t 0.14 -s 3 -d 2 -p cbr -e 1000 -c 3 -i 5 -a 3 -x {3.0 2.1 -1 ------- null}
+ -t 0.148 -s 3 -d 2 -p cbr -e 1000 -c 3 -i 6 -a 3 -x {3.0 2.1 6 ------- null}
- -t 0.148 -s 3 -d 2 -p cbr -e 1000 -c 3 -i 6 -a 3 -x {3.0 2.1 6 ------- null}
h -t 0.148 -s 3 -d 2 -p cbr -e 1000 -c 3 -i 6 -a 3 -x {3.0 2.1 -1 ------- null}
r -t 0.154 -s 3 -d 2 -p cbr -e 1000 -c 3 -i 0 -a 3 -x {3.0 2.1 0 ------- null}
+ -t 0.156 -s 3 -d 2 -p cbr -e 1000 -c 3 -i 7 -a 3 -x {3.0 2.1 7 ------- null}
- -t 0.156 -s 3 -d 2 -p cbr -e 1000 -c 3 -i 7 -a 3 -x {3.0 2.1 7 ------- null}
h -t 0.156 -s 3 -d 2 -p cbr -e 1000 -c 3 -i 7 -a 3 -x {3.0 2.1 -1 ------- null}
r -t 0.162 -s 3 -d 2 -p cbr -e 1000 -c 3 -i 1 -a 3 -x {3.0 2.1 1 ------- null}
+ -t 0.164 -s 3 -d 2 -p cbr -e 1000 -c 3 -i 8 -a 3 -x {3.0 2.1 8 ------- null}
- -t 0.164 -s 3 -d 2 -p cbr -e 1000 -c 3 -i 8 -a 3 -x {3.0 2.1 8 ------- null}
h -t 0.164 -s 3 -d 2 -p cbr -e 1000 -c 3 -i 8 -a 3 -x {3.0 2.1 -1 ------- null}
r -t 0.17 -s 3 -d 2 -p cbr -e 1000 -c 3 -i 2 -a 3 -x {3.0 2.1 2 ------- null}
+ -t 0.172 -s 3 -d 2 -p cbr -e 1000 -c 3 -i 9 -a 3 -x {3.0 2.1 9 ------- null}
- -t 0.172 -s 3 -d 2 -p cbr -e 1000 -c 3 -i 9 -a 3 -x {3.0 2.1 9 ------- null}
h -t 0.172 -s 3 -d 2 -p cbr -e 1000 -c 3 -i 9 -a 3 -x {3.0 2.1 -1 ------- null}
r -t 0.178 -s 3 -d 2 -p cbr -e 1000 -c 3 -i 3 -a 3 -x {3.0 2.1 3 ------- null}
+ -t 0.18 -s 3 -d 2 -p cbr -e 1000 -c 3 -i 10 -a 3 -x {3.0 2.1 10 ------- null}
- -t 0.18 -s 3 -d 2 -p cbr -e 1000 -c 3 -i 10 -a 3 -x {3.0 2.1 10 ------- null}
h -t 0.18 -s 3 -d 2 -p cbr -e 1000 -c 3 -i 10 -a 3 -x {3.0 2.1 -1 ------- null}
r -t 0.186 -s 3 -d 2 -p cbr -e 1000 -c 3 -i 4 -a 3 -x {3.0 2.1 4 ------- null}
+ -t 0.188 -s 3 -d 2 -p cbr -e 1000 -c 3 -i 11 -a 3 -x {3.0 2.1 11 ------- null}
- -t 0.188 -s 3 -d 2 -p cbr -e 1000 -c 3 -i 11 -a 3 -x {3.0 2.1 11 ------- null}
h -t 0.188 -s 3 -d 2 -p cbr -e 1000 -c 3 -i 11 -a 3 -x {3.0 2.1 -1 ------- null}
r -t 0.194 -s 3 -d 2 -p cbr -e 1000 -c 3 -i 5 -a 3 -x {3.0 2.1 5 ------- null}
+ -t 0.196 -s 3 -d 2 -p cbr -e 1000 -c 3 -i 12 -a 3 -x {3.0 2.1 12 ------- null}
- -t 0.196 -s 3 -d 2 -p cbr -e 1000 -c 3 -i 12 -a 3 -x {3.0 2.1 12 ------- null}
h -t 0.196 -s 3 -d 2 -p cbr -e 1000 -c 3 -i 12 -a 3 -x {3.0 2.1 -1 ------- null}
r -t 0.202 -s 3 -d 2 -p cbr -e 1000 -c 3 -i 6 -a 3 -x {3.0 2.1 6 ------- null}
+ -t 0.204 -s 3 -d 2 -p cbr -e 1000 -c 3 -i 13 -a 3 -x {3.0 2.1 13 ------- null}
- -t 0.204 -s 3 -d 2 -p cbr -e 1000 -c 3 -i 13 -a 3 -x {3.0 2.1 13 ------- null}
h -t 0.204 -s 3 -d 2 -p cbr -e 1000 -c 3 -i 13 -a 3 -x {3.0 2.1 -1 ------- null}
r -t 0.21 -s 3 -d 2 -p cbr -e 1000 -c 3 -i 7 -a 3 -x {3.0 2.1 7 ------- null}
+ -t 0.212 -s 3 -d 2 -p cbr -e 1000 -c 3 -i 14 -a 3 -x {3.0 2.1 14 ------- null}
- -t 0.212 -s 3 -d 2 -p cbr -e 1000 -c 3 -i 14 -a 3 -x {3.0 2.1 14 ------- null}
h -t 0.212 -s 3 -d 2 -p cbr -e 1000 -c 3 -i 14 -a 3 -x {3.0 2.1 -1 ------- null}
r -t 0.218 -s 3 -d 2 -p cbr -e 1000 -c 3 -i 8 -a 3 -x {3.0 2.1 8 ------- null}
+ -t 0.22 -s 3 -d 2 -p cbr -e 1000 -c 3 -i 15 -a 3 -x {3.0 2.1 15 ------- null}
- -t 0.22 -s 3 -d 2 -p cbr -e 1000 -c 3 -i 15 -a 3 -x {3.0 2.1 15 ------- null}
h -t 0.22 -s 3 -d 2 -p cbr -e 1000 -c 3 -i 15 -a 3 -x {3.0 2.1 -1 ------- null}
r -t 0.226 -s 3 -d 2 -p cbr -e 1000 -c 3 -i 9 -a 3 -x {3.0 2.1 9 ------- null}
+ -t 0.228 -s 3 -d 2 -p cbr -e 1000 -c 3 -i 16 -a 3 -x {3.0 2.1 16 ------- null}
- -t 0.228 -s 3 -d 2 -p cbr -e 1000 -c 3 -i 16 -a 3 -x {3.0 2.1 16 ------- null}
h -t 0.228 -s 3 -d 2 -p cbr -e 1000 -c 3 -i 16 -a 3 -x {3.0 2.1 -1 ------- null}
r -t 0.234 -s 3 -d 2 -p cbr -e 1000 -c 3 -i 10 -a 3 -x {3.0 2.1 10 ------- null}
+ -t 0.236 -s 3 -d 2 -p cbr -e 1000 -c 3 -i 17 -a 3 -x {3.0 2.1 17 ------- null}
- -t 0.236 -s 3 -d 2 -p cbr -e 1000 -c 3 -i 17 -a 3 -x {3.0 2.1 17 ------- null}
h -t 0.236 -s 3 -d 2 -p cbr -e 1000 -c 3 -i 17 -a 3 -x {3.0 2.1 -1 ------- null}
r -t 0.242 -s 3 -d 2 -p cbr -e 1000 -c 3 -i 11 -a 3 -x {3.0 2.1 11 ------- null}
+ -t 0.244 -s 3 -d 2 -p cbr -e 1000 -c 3 -i 18 -a 3 -x {3.0 2.1 18 ------- null}
- -t 0.244 -s 3 -d 2 -p cbr -e 1000 -c 3 -i 18 -a 3 -x {3.0 2.1 18 ------- null}
h -t 0.244 -s 3 -d 2 -p cbr -e 1000 -c 3 -i 18 -a 3 -x {3.0 2.1 -1 ------- null}
r -t 0.25 -s 3 -d 2 -p cbr -e 1000 -c 3 -i 12 -a 3 -x {3.0 2.1 12 ------- null}
+ -t 0.252 -s 3 -d 2 -p cbr -e 1000 -c 3 -i 19 -a 3 -x {3.0 2.1 19 ------- null}
- -t 0.252 -s 3 -d 2 -p cbr -e 1000 -c 3 -i 19 -a 3 -x {3.0 2.1 19 ------- null}
h -t 0.252 -s 3 -d 2 -p cbr -e 1000 -c 3 -i 19 -a 3 -x {3.0 2.1 -1 ------- null}
r -t 0.258 -s 3 -d 2 -p cbr -e 1000 -c 3 -i 13 -a 3 -x {3.0 2.1 13 ------- null}
+ -t 0.26 -s 3 -d 2 -p cbr -e 1000 -c 3 -i 20 -a 3 -x {3.0 2.1 20 ------- null}
- -t 0.26 -s 3 -d 2 -p cbr -e 1000 -c 3 -i 20 -a 3 -x {3.0 2.1 20 ------- null}
h -t 0.26 -s 3 -d 2 -p cbr -e 1000 -c 3 -i 20 -a 3 -x {3.0 2.1 -1 ------- null}
r -t 0.266 -s 3 -d 2 -p cbr -e 1000 -c 3 -i 14 -a 3 -x {3.0 2.1 14 ------- null}
+ -t 0.268 -s 3 -d 2 -p cbr -e 1000 -c 3 -i 21 -a 3 -x {3.0 2.1 21 ------- null}
- -t 0.268 -s 3 -d 2 -p cbr -e 1000 -c 3 -i 21 -a 3 -x {3.0 2.1 21 ------- null}
h -t 0.268 -s 3 -d 2 -p cbr -e 1000 -c 3 -i 21 -a 3 -x {3.0 2.1 -1 ------- null}
r -t 0.274 -s 3 -d 2 -p cbr -e 1000 -c 3 -i 15 -a 3 -x {3.0 2.1 15 ------- null}
+ -t 0.276 -s 3 -d 2 -p cbr -e 1000 -c 3 -i 22 -a 3 -x {3.0 2.1 22 ------- null}
- -t 0.276 -s 3 -d 2 -p cbr -e 1000 -c 3 -i 22 -a 3 -x {3.0 2.1 22 ------- null}
h -t 0.276 -s 3 -d 2 -p cbr -e 1000 -c 3 -i 22 -a 3 -x {3.0 2.1 -1 ------- null}
r -t 0.282 -s 3 -d 2 -p cbr -e 1000 -c 3 -i 16 -a 3 -x {3.0 2.1 16 ------- null}
+ -t 0.284 -s 3 -d 2 -p cbr -e 1000 -c 3 -i 23 -a 3 -x {3.0 2.1 23 ------- null}
- -t 0.284 -s 3 -d 2 -p cbr -e 1000 -c 3 -i 23 -a 3 -x {3.0 2.1 23 ------- null}
h -t 0.284 -s 3 -d 2 -p cbr -e 1000 -c 3 -i 23 -a 3 -x {3.0 2.1 -1 ------- null}
r -t 0.29 -s 3 -d 2 -p cbr -e 1000 -c 3 -i 17 -a 3 -x {3.0 2.1 17 ------- null}
+ -t 0.292 -s 3 -d 2 -p cbr -e 1000 -c 3 -i 24 -a 3 -x {3.0 2.1 24 ------- null}
- -t 0.292 -s 3 -d 2 -p cbr -e 1000 -c 3 -i 24 -a 3 -x {3.0 2.1 24 ------- null}
h -t 0.292 -s 3 -d 2 -p cbr -e 1000 -c 3 -i 24 -a 3 -x {3.0 2.1 -1 ------- null}
r -t 0.298 -s 3 -d 2 -p cbr -e 1000 -c 3 -i 18 -a 3 -x {3.0 2.1 18 ------- null}
+ -t 0.3 -s 3 -d 2 -p cbr -e 1000 -c 3 -i 25 -a 3 -x {3.0 2.1 25 ------- null}
- -t 0.3 -s 3 -d 2 -p cbr -e 1000 -c 3 -i 25 -a 3 -x {3.0 2.1 25 ------- null}
h -t 0.3 -s 3 -d 2 -p cbr -e 1000 -c 3 -i 25 -a 3 -x {3.0 2.1 -1 ------- null}
r -t 0.306 -s 3 -d 2 -p cbr -e 1000 -c 3 -i 19 -a 3 -x {3.0 2.1 19 ------- null}
+ -t 0.308 -s 3 -d 2 -p cbr -e 1000 -c 3 -i 26 -a 3 -x {3.0 2.1 26 ------- null}
- -t 0.308 -s 3 -d 2 -p cbr -e 1000 -c 3 -i 26 -a 3 -x {3.0 2.1 26 ------- null}
h -t 0.308 -s 3 -d 2 -p cbr -e 1000 -c 3 -i 26 -a 3 -x {3.0 2.1 -1 ------- null}
r -t 0.314 -s 3 -d 2 -p cbr -e 1000 -c 3 -i 20 -a 3 -x {3.0 2.1 20 ------- null}
+ -t 0.316 -s 3 -d 2 -p cbr -e 1000 -c 3 -i 27 -a 3 -x {3.0 2.1 27 ------- null}
- -t 0.316 -s 3 -d 2 -p cbr -e 1000 -c 3 -i 27 -a 3 -x {3.0 2.1 27 ------- null}
h -t 0.316 -s 3 -d 2 -p cbr -e 1000 -c 3 -i 27 -a 3 -x {3.0 2.1 -1 ------- null}
r -t 0.322 -s 3 -d 2 -p cbr -e 1000 -c 3 -i 21 -a 3 -x {3.0 2.1 21 ------- null}
+ -t 0.324 -s 3 -d 2 -p cbr -e 1000 -c 3 -i 28 -a 3 -x {3.0 2.1 28 ------- null}
- -t 0.324 -s 3 -d 2 -p cbr -e 1000 -c 3 -i 28 -a 3 -x {3.0 2.1 28 ------- null}
h -t 0.324 -s 3 -d 2 -p cbr -e 1000 -c 3 -i 28 -a 3 -x {3.0 2.1 -1 ------- null}
r -t 0.33 -s 3 -d 2 -p cbr -e 1000 -c 3 -i 22 -a 3 -x {3.0 2.1 22 ------- null}
+ -t 0.332 -s 3 -d 2 -p cbr -e 1000 -c 3 -i 29 -a 3 -x {3.0 2.1 29 ------- null}
- -t 0.332 -s 3 -d 2 -p cbr -e 1000 -c 3 -i 29 -a 3 -x {3.0 2.1 29 ------- null}
h -t 0.332 -s 3 -d 2 -p cbr -e 1000 -c 3 -i 29 -a 3 -x {3.0 2.1 -1 ------- null}
r -t 0.338 -s 3 -d 2 -p cbr -e 1000 -c 3 -i 23 -a 3 -x {3.0 2.1 23 ------- null}
+ -t 0.34 -s 3 -d 2 -p cbr -e 1000 -c 3 -i 30 -a 3 -x {3.0 2.1 30 ------- null}
- -t 0.34 -s 3 -d 2 -p cbr -e 1000 -c 3 -i 30 -a 3 -x {3.0 2.1 30 ------- null}
h -t 0.34 -s 3 -d 2 -p cbr -e 1000 -c 3 -i 30 -a 3 -x {3.0 2.1 -1 ------- null}
r -t 0.346 -s 3 -d 2 -p cbr -e 1000 -c 3 -i 24 -a 3 -x {3.0 2.1 24 ------- null}
+ -t 0.348 -s 3 -d 2 -p cbr -e 1000 -c 3 -i 31 -a 3 -x {3.0 2.1 31 ------- null}
- -t 0.348 -s 3 -d 2 -p cbr -e 1000 -c 3 -i 31 -a 3 -x {3.0 2.1 31 ------- null}
h -t 0.348 -s 3 -d 2 -p cbr -e 1000 -c 3 -i 31 -a 3 -x {3.0 2.1 -1 ------- null}
r -t 0.354 -s 3 -d 2 -p cbr -e 1000 -c 3 -i 25 -a 3 -x {3.0 2.1 25 ------- null}
+ -t 0.356 -s 3 -d 2 -p cbr -e 1000 -c 3 -i 32 -a 3 -x {3.0 2.1 32 ------- null}
- -t 0.356 -s 3 -d 2 -p cbr -e 1000 -c 3 -i 32 -a 3 -x {3.0 2.1 32 ------- null}
h -t 0.356 -s 3 -d 2 -p cbr -e 1000 -c 3 -i 32 -a 3 -x {3.0 2.1 -1 ------- null}
r -t 0.362 -s 3 -d 2 -p cbr -e 1000 -c 3 -i 26 -a 3 -x {3.0 2.1 26 ------- null}
+ -t 0.364 -s 3 -d 2 -p cbr -e 1000 -c 3 -i 33 -a 3 -x {3.0 2.1 33 ------- null}
- -t 0.364 -s 3 -d 2 -p cbr -e 1000 -c 3 -i 33 -a 3 -x {3.0 2.1 33 ------- null}
h -t 0.364 -s 3 -d 2 -p cbr -e 1000 -c 3 -i 33 -a 3 -x {3.0 2.1 -1 ------- null}
r -t 0.37 -s 3 -d 2 -p cbr -e 1000 -c 3 -i 27 -a 3 -x {3.0 2.1 27 ------- null}
+ -t 0.372 -s 3 -d 2 -p cbr -e 1000 -c 3 -i 34 -a 3 -x {3.0 2.1 34 ------- null}
- -t 0.372 -s 3 -d 2 -p cbr -e 1000 -c 3 -i 34 -a 3 -x {3.0 2.1 34 ------- null}
h -t 0.372 -s 3 -d 2 -p cbr -e 1000 -c 3 -i 34 -a 3 -x {3.0 2.1 -1 ------- null}
r -t 0.378 -s 3 -d 2 -p cbr -e 1000 -c 3 -i 28 -a 3 -x {3.0 2.1 28 ------- null}
+ -t 0.38 -s 3 -d 2 -p cbr -e 1000 -c 3 -i 35 -a 3 -x {3.0 2.1 35 ------- null}
- -t 0.38 -s 3 -d 2 -p cbr -e 1000 -c 3 -i 35 -a 3 -x {3.0 2.1 35 ------- null}
h -t 0.38 -s 3 -d 2 -p cbr -e 1000 -c 3 -i 35 -a 3 -x {3.0 2.1 -1 ------- null}
r -t 0.386 -s 3 -d 2 -p cbr -e 1000 -c 3 -i 29 -a 3 -x {3.0 2.1 29 ------- null}
+ -t 0.388 -s 3 -d 2 -p cbr -e 1000 -c 3 -i 36 -a 3 -x {3.0 2.1 36 ------- null}
- -t 0.388 -s 3 -d 2 -p cbr -e 1000 -c 3 -i 36 -a 3 -x {3.0 2.1 36 ------- null}
h -t 0.388 -s 3 -d 2 -p cbr -e 1000 -c 3 -i 36 -a 3 -x {3.0 2.1 -1 ------- null}
r -t 0.394 -s 3 -d 2 -p cbr -e 1000 -c 3 -i 30 -a 3 -x {3.0 2.1 30 ------- null}
+ -t 0.396 -s 3 -d 2 -p cbr -e 1000 -c 3 -i 37 -a 3 -x {3.0 2.1 37 ------- null}
- -t 0.396 -s 3 -d 2 -p cbr -e 1000 -c 3 -i 37 -a 3 -x {3.0 2.1 37 ------- null}
h -t 0.396 -s 3 -d 2 -p cbr -e 1000 -c 3 -i 37 -a 3 -x {3.0 2.1 -1 ------- null}
r -t 0.402 -s 3 -d 2 -p cbr -e 1000 -c 3 -i 31 -a 3 -x {3.0 2.1 31 ------- null}
+ -t 0.404 -s 3 -d 2 -p cbr -e 1000 -c 3 -i 38 -a 3 -x {3.0 2.1 38 ------- null}
- -t 0.404 -s 3 -d 2 -p cbr -e 1000 -c 3 -i 38 -a 3 -x {3.0 2.1 38 ------- null}
h -t 0.404 -s 3 -d 2 -p cbr -e 1000 -c 3 -i 38 -a 3 -x {3.0 2.1 -1 ------- null}
r -t 0.41 -s 3 -d 2 -p cbr -e 1000 -c 3 -i 32 -a 3 -x {3.0 2.1 32 ------- null}
+ -t 0.412 -s 3 -d 2 -p cbr -e 1000 -c 3 -i 39 -a 3 -x {3.0 2.1 39 ------- null}
- -t 0.412 -s 3 -d 2 -p cbr -e 1000 -c 3 -i 39 -a 3 -x {3.0 2.1 39 ------- null}
h -t 0.412 -s 3 -d 2 -p cbr -e 1000 -c 3 -i 39 -a 3 -x {3.0 2.1 -1 ------- null}
r -t 0.418 -s 3 -d 2 -p cbr -e 1000 -c 3 -i 33 -a 3 -x {3.0 2.1 33 ------- null}
+ -t 0.42 -s 3 -d 2 -p cbr -e 1000 -c 3 -i 40 -a 3 -x {3.0 2.1 40 ------- null}
- -t 0.42 -s 3 -d 2 -p cbr -e 1000 -c 3 -i 40 -a 3 -x {3.0 2.1 40 ------- null}
h -t 0.42 -s 3 -d 2 -p cbr -e 1000 -c 3 -i 40 -a 3 -x {3.0 2.1 -1 ------- null}
r -t 0.426 -s 3 -d 2 -p cbr -e 1000 -c 3 -i 34 -a 3 -x {3.0 2.1 34 ------- null}
+ -t 0.428 -s 3 -d 2 -p cbr -e 1000 -c 3 -i 41 -a 3 -x {3.0 2.1 41 ------- null}
- -t 0.428 -s 3 -d 2 -p cbr -e 1000 -c 3 -i 41 -a 3 -x {3.0 2.1 41 ------- null}
h -t 0.428 -s 3 -d 2 -p cbr -e 1000 -c 3 -i 41 -a 3 -x {3.0 2.1 -1 ------- null}
r -t 0.434 -s 3 -d 2 -p cbr -e 1000 -c 3 -i 35 -a 3 -x {3.0 2.1 35 ------- null}
+ -t 0.436 -s 3 -d 2 -p cbr -e 1000 -c 3 -i 42 -a 3 -x {3.0 2.1 42 ------- null}
- -t 0.436 -s 3 -d 2 -p cbr -e 1000 -c 3 -i 42 -a 3 -x {3.0 2.1 42 ------- null}
h -t 0.436 -s 3 -d 2 -p cbr -e 1000 -c 3 -i 42 -a 3 -x {3.0 2.1 -1 ------- null}
r -t 0.442 -s 3 -d 2 -p cbr -e 1000 -c 3 -i 36 -a 3 -x {3.0 2.1 36 ------- null}
+ -t 0.444 -s 3 -d 2 -p cbr -e 1000 -c 3 -i 43 -a 3 -x {3.0 2.1 43 ------- null}
- -t 0.444 -s 3 -d 2 -p cbr -e 1000 -c 3 -i 43 -a 3 -x {3.0 2.1 43 ------- null}
h -t 0.444 -s 3 -d 2 -p cbr -e 1000 -c 3 -i 43 -a 3 -x {3.0 2.1 -1 ------- null}
r -t 0.45 -s 3 -d 2 -p cbr -e 1000 -c 3 -i 37 -a 3 -x {3.0 2.1 37 ------- null}
+ -t 0.452 -s 3 -d 2 -p cbr -e 1000 -c 3 -i 44 -a 3 -x {3.0 2.1 44 ------- null}
- -t 0.452 -s 3 -d 2 -p cbr -e 1000 -c 3 -i 44 -a 3 -x {3.0 2.1 44 ------- null}
h -t 0.452 -s 3 -d 2 -p cbr -e 1000 -c 3 -i 44 -a 3 -x {3.0 2.1 -1 ------- null}
r -t 0.458 -s 3 -d 2 -p cbr -e 1000 -c 3 -i 38 -a 3 -x {3.0 2.1 38 ------- null}
+ -t 0.46 -s 3 -d 2 -p cbr -e 1000 -c 3 -i 45 -a 3 -x {3.0 2.1 45 ------- null}
- -t 0.46 -s 3 -d 2 -p cbr -e 1000 -c 3 -i 45 -a 3 -x {3.0 2.1 45 ------- null}
h -t 0.46 -s 3 -d 2 -p cbr -e 1000 -c 3 -i 45 -a 3 -x {3.0 2.1 -1 ------- null}
r -t 0.466 -s 3 -d 2 -p cbr -e 1000 -c 3 -i 39 -a 3 -x {3.0 2.1 39 ------- null}
+ -t 0.468 -s 3 -d 2 -p cbr -e 1000 -c 3 -i 46 -a 3 -x {3.0 2.1 46 ------- null}
- -t 0.468 -s 3 -d 2 -p cbr -e 1000 -c 3 -i 46 -a 3 -x {3.0 2.1 46 ------- null}
h -t 0.468 -s 3 -d 2 -p cbr -e 1000 -c 3 -i 46 -a 3 -x {3.0 2.1 -1 ------- null}
r -t 0.474 -s 3 -d 2 -p cbr -e 1000 -c 3 -i 40 -a 3 -x {3.0 2.1 40 ------- null}
+ -t 0.476 -s 3 -d 2 -p cbr -e 1000 -c 3 -i 47 -a 3 -x {3.0 2.1 47 ------- null}
- -t 0.476 -s 3 -d 2 -p cbr -e 1000 -c 3 -i 47 -a 3 -x {3.0 2.1 47 ------- null}
h -t 0.476 -s 3 -d 2 -p cbr -e 1000 -c 3 -i 47 -a 3 -x {3.0 2.1 -1 ------- null}
r -t 0.482 -s 3 -d 2 -p cbr -e 1000 -c 3 -i 41 -a 3 -x {3.0 2.1 41 ------- null}
+ -t 0.484 -s 3 -d 2 -p cbr -e 1000 -c 3 -i 48 -a 3 -x {3.0 2.1 48 ------- null}
- -t 0.484 -s 3 -d 2 -p cbr -e 1000 -c 3 -i 48 -a 3 -x {3.0 2.1 48 ------- null}
h -t 0.484 -s 3 -d 2 -p cbr -e 1000 -c 3 -i 48 -a 3 -x {3.0 2.1 -1 ------- null}
r -t 0.49 -s 3 -d 2 -p cbr -e 1000 -c 3 -i 42 -a 3 -x {3.0 2.1 42 ------- null}
+ -t 0.492 -s 3 -d 2 -p cbr -e 1000 -c 3 -i 49 -a 3 -x {3.0 2.1 49 ------- null}
- -t 0.492 -s 3 -d 2 -p cbr -e 1000 -c 3 -i 49 -a 3 -x {3.0 2.1 49 ------- null}
h -t 0.492 -s 3 -d 2 -p cbr -e 1000 -c 3 -i 49 -a 3 -x {3.0 2.1 -1 ------- null}
r -t 0.498 -s 3 -d 2 -p cbr -e 1000 -c 3 -i 43 -a 3 -x {3.0 2.1 43 ------- null}
+ -t 0.5 -s 1 -d 0 -p tcp -e 40 -c 1 -i 50 -a 1 -x {1.0 0.0 0 ------- null}
- -t 0.5 -s 1 -d 0 -p tcp -e 40 -c 1 -i 50 -a 1 -x {1.0 0.0 0 ------- null}
h -t 0.5 -s 1 -d 0 -p tcp -e 40 -c 1 -i 50 -a 1 -x {1.0 0.0 -1 ------- null}
+ -t 0.5 -s 3 -d 2 -p cbr -e 1000 -c 3 -i 51 -a 3 -x {3.0 2.1 50 ------- null}
- -t 0.5 -s 3 -d 2 -p cbr -e 1000 -c 3 -i 51 -a 3 -x {3.0 2.1 50 ------- null}
h -t 0.5 -s 3 -d 2 -p cbr -e 1000 -c 3 -i 51 -a 3 -x {3.0 2.1 -1 ------- null}
r -t 0.506 -s 3 -d 2 -p cbr -e 1000 -c 3 -i 44 -a 3 -x {3.0 2.1 44 ------- null}
+ -t 0.508 -s 3 -d 2 -p cbr -e 1000 -c 3 -i 52 -a 3 -x {3.0 2.1 51 ------- null}
- -t 0.508 -s 3 -d 2 -p cbr -e 1000 -c 3 -i 52 -a 3 -x {3.0 2.1 51 ------- null}
h -t 0.508 -s 3 -d 2 -p cbr -e 1000 -c 3 -i 52 -a 3 -x {3.0 2.1 -1 ------- null}
r -t 0.514 -s 3 -d 2 -p cbr -e 1000 -c 3 -i 45 -a 3 -x {3.0 2.1 45 ------- null}
+ -t 0.516 -s 3 -d 2 -p cbr -e 1000 -c 3 -i 53 -a 3 -x {3.0 2.1 52 ------- null}
- -t 0.516 -s 3 -d 2 -p cbr -e 1000 -c 3 -i 53 -a 3 -x {3.0 2.1 52 ------- null}
h -t 0.516 -s 3 -d 2 -p cbr -e 1000 -c 3 -i 53 -a 3 -x {3.0 2.1 -1 ------- null}
r -t 0.52032 -s 1 -d 0 -p tcp -e 40 -c 1 -i 50 -a 1 -x {1.0 0.0 0 ------- null}
+ -t 0.52032 -s 0 -d 1 -p ack -e 40 -c 1 -i 54 -a 1 -x {0.0 1.0 0 ------- null}
- -t 0.52032 -s 0 -d 1 -p ack -e 40 -c 1 -i 54 -a 1 -x {0.0 1.0 0 ------- null}
h -t 0.52032 -s 0 -d 1 -p ack -e 40 -c 1 -i 54 -a 1 -x {0.0 1.0 -1 ------- null}
r -t 0.522 -s 3 -d 2 -p cbr -e 1000 -c 3 -i 46 -a 3 -x {3.0 2.1 46 ------- null}
+ -t 0.524 -s 3 -d 2 -p cbr -e 1000 -c 3 -i 55 -a 3 -x {3.0 2.1 53 ------- null}
- -t 0.524 -s 3 -d 2 -p cbr -e 1000 -c 3 -i 55 -a 3 -x {3.0 2.1 53 ------- null}
h -t 0.524 -s 3 -d 2 -p cbr -e 1000 -c 3 -i 55 -a 3 -x {3.0 2.1 -1 ------- null}
r -t 0.53 -s 3 -d 2 -p cbr -e 1000 -c 3 -i 47 -a 3 -x {3.0 2.1 47 ------- null}
+ -t 0.532 -s 3 -d 2 -p cbr -e 1000 -c 3 -i 56 -a 3 -x {3.0 2.1 54 ------- null}
- -t 0.532 -s 3 -d 2 -p cbr -e 1000 -c 3 -i 56 -a 3 -x {3.0 2.1 54 ------- null}
h -t 0.532 -s 3 -d 2 -p cbr -e 1000 -c 3 -i 56 -a 3 -x {3.0 2.1 -1 ------- null}
r -t 0.538 -s 3 -d 2 -p cbr -e 1000 -c 3 -i 48 -a 3 -x {3.0 2.1 48 ------- null}
+ -t 0.54 -s 3 -d 2 -p cbr -e 1000 -c 3 -i 57 -a 3 -x {3.0 2.1 55 ------- null}
- -t 0.54 -s 3 -d 2 -p cbr -e 1000 -c 3 -i 57 -a 3 -x {3.0 2.1 55 ------- null}
h -t 0.54 -s 3 -d 2 -p cbr -e 1000 -c 3 -i 57 -a 3 -x {3.0 2.1 -1 ------- null}
r -t 0.54064 -s 0 -d 1 -p ack -e 40 -c 1 -i 54 -a 1 -x {0.0 1.0 0 ------- null}
+ -t 0.54064 -s 1 -d 0 -p tcp -e 1040 -c 1 -i 58 -a 1 -x {1.0 0.0 1 ------- null}
- -t 0.54064 -s 1 -d 0 -p tcp -e 1040 -c 1 -i 58 -a 1 -x {1.0 0.0 1 ------- null}
h -t 0.54064 -s 1 -d 0 -p tcp -e 1040 -c 1 -i 58 -a 1 -x {1.0 0.0 -1 ------- null}
+ -t 0.54064 -s 1 -d 0 -p tcp -e 1040 -c 1 -i 59 -a 1 -x {1.0 0.0 2 ------- null}
r -t 0.546 -s 3 -d 2 -p cbr -e 1000 -c 3 -i 49 -a 3 -x {3.0 2.1 49 ------- null}
+ -t 0.548 -s 3 -d 2 -p cbr -e 1000 -c 3 -i 60 -a 3 -x {3.0 2.1 56 ------- null}
- -t 0.548 -s 3 -d 2 -p cbr -e 1000 -c 3 -i 60 -a 3 -x {3.0 2.1 56 ------- null}
h -t 0.548 -s 3 -d 2 -p cbr -e 1000 -c 3 -i 60 -a 3 -x {3.0 2.1 -1 ------- null}
- -t 0.54896 -s 1 -d 0 -p tcp -e 1040 -c 1 -i 59 -a 1 -x {1.0 0.0 2 ------- null}
h -t 0.54896 -s 1 -d 0 -p tcp -e 1040 -c 1 -i 59 -a 1 -x {1.0 0.0 -1 ------- null}
r -t 0.554 -s 3 -d 2 -p cbr -e 1000 -c 3 -i 51 -a 3 -x {3.0 2.1 50 ------- null}
+ -t 0.556 -s 3 -d 2 -p cbr -e 1000 -c 3 -i 61 -a 3 -x {3.0 2.1 57 ------- null}
- -t 0.556 -s 3 -d 2 -p cbr -e 1000 -c 3 -i 61 -a 3 -x {3.0 2.1 57 ------- null}
h -t 0.556 -s 3 -d 2 -p cbr -e 1000 -c 3 -i 61 -a 3 -x {3.0 2.1 -1 ------- null}
r -t 0.562 -s 3 -d 2 -p cbr -e 1000 -c 3 -i 52 -a 3 -x {3.0 2.1 51 ------- null}
+ -t 0.564 -s 3 -d 2 -p cbr -e 1000 -c 3 -i 62 -a 3 -x {3.0 2.1 58 ------- null}
- -t 0.564 -s 3 -d 2 -p cbr -e 1000 -c 3 -i 62 -a 3 -x {3.0 2.1 58 ------- null}
h -t 0.564 -s 3 -d 2 -p cbr -e 1000 -c 3 -i 62 -a 3 -x {3.0 2.1 -1 ------- null}
r -t 0.56896 -s 1 -d 0 -p tcp -e 1040 -c 1 -i 58 -a 1 -x {1.0 0.0 1 ------- null}
+ -t 0.56896 -s 0 -d 1 -p ack -e 40 -c 1 -i 63 -a 1 -x {0.0 1.0 1 ------- null}
- -t 0.56896 -s 0 -d 1 -p ack -e 40 -c 1 -i 63 -a 1 -x {0.0 1.0 1 ------- null}
h -t 0.56896 -s 0 -d 1 -p ack -e 40 -c 1 -i 63 -a 1 -x {0.0 1.0 -1 ------- null}
r -t 0.57 -s 3 -d 2 -p cbr -e 1000 -c 3 -i 53 -a 3 -x {3.0 2.1 52 ------- null}
+ -t 0.572 -s 3 -d 2 -p cbr -e 1000 -c 3 -i 64 -a 3 -x {3.0 2.1 59 ------- null}
- -t 0.572 -s 3 -d 2 -p cbr -e 1000 -c 3 -i 64 -a 3 -x {3.0 2.1 59 ------- null}
h -t 0.572 -s 3 -d 2 -p cbr -e 1000 -c 3 -i 64 -a 3 -x {3.0 2.1 -1 ------- null}
r -t 0.57728 -s 1 -d 0 -p tcp -e 1040 -c 1 -i 59 -a 1 -x {1.0 0.0 2 ------- null}
+ -t 0.57728 -s 0 -d 1 -p ack -e 40 -c 1 -i 65 -a 1 -x {0.0 1.0 2 ------- null}
- -t 0.57728 -s 0 -d 1 -p ack -e 40 -c 1 -i 65 -a 1 -x {0.0 1.0 2 ------- null}
h -t 0.57728 -s 0 -d 1 -p ack -e 40 -c 1 -i 65 -a 1 -x {0.0 1.0 -1 ------- null}
r -t 0.578 -s 3 -d 2 -p cbr -e 1000 -c 3 -i 55 -a 3 -x {3.0 2.1 53 ------- null}
+ -t 0.58 -s 3 -d 2 -p cbr -e 1000 -c 3 -i 66 -a 3 -x {3.0 2.1 60 ------- null}
- -t 0.58 -s 3 -d 2 -p cbr -e 1000 -c 3 -i 66 -a 3 -x {3.0 2.1 60 ------- null}
h -t 0.58 -s 3 -d 2 -p cbr -e 1000 -c 3 -i 66 -a 3 -x {3.0 2.1 -1 ------- null}
r -t 0.586 -s 3 -d 2 -p cbr -e 1000 -c 3 -i 56 -a 3 -x {3.0 2.1 54 ------- null}
+ -t 0.588 -s 3 -d 2 -p cbr -e 1000 -c 3 -i 67 -a 3 -x {3.0 2.1 61 ------- null}
- -t 0.588 -s 3 -d 2 -p cbr -e 1000 -c 3 -i 67 -a 3 -x {3.0 2.1 61 ------- null}
h -t 0.588 -s 3 -d 2 -p cbr -e 1000 -c 3 -i 67 -a 3 -x {3.0 2.1 -1 ------- null}
r -t 0.58928 -s 0 -d 1 -p ack -e 40 -c 1 -i 63 -a 1 -x {0.0 1.0 1 ------- null}
+ -t 0.58928 -s 1 -d 0 -p tcp -e 1040 -c 1 -i 68 -a 1 -x {1.0 0.0 3 ------- null}
- -t 0.58928 -s 1 -d 0 -p tcp -e 1040 -c 1 -i 68 -a 1 -x {1.0 0.0 3 ------- null}
h -t 0.58928 -s 1 -d 0 -p tcp -e 1040 -c 1 -i 68 -a 1 -x {1.0 0.0 -1 ------- null}
+ -t 0.58928 -s 1 -d 0 -p tcp -e 1040 -c 1 -i 69 -a 1 -x {1.0 0.0 4 ------- null}
r -t 0.594 -s 3 -d 2 -p cbr -e 1000 -c 3 -i 57 -a 3 -x {3.0 2.1 55 ------- null}
+ -t 0.596 -s 3 -d 2 -p cbr -e 1000 -c 3 -i 70 -a 3 -x {3.0 2.1 62 ------- null}
- -t 0.596 -s 3 -d 2 -p cbr -e 1000 -c 3 -i 70 -a 3 -x {3.0 2.1 62 ------- null}
h -t 0.596 -s 3 -d 2 -p cbr -e 1000 -c 3 -i 70 -a 3 -x {3.0 2.1 -1 ------- null}
r -t 0.5976 -s 0 -d 1 -p ack -e 40 -c 1 -i 65 -a 1 -x {0.0 1.0 2 ------- null}
+ -t 0.5976 -s 1 -d 0 -p tcp -e 1040 -c 1 -i 71 -a 1 -x {1.0 0.0 5 ------- null}
+ -t 0.5976 -s 1 -d 0 -p tcp -e 1040 -c 1 -i 72 -a 1 -x {1.0 0.0 6 ------- null}
- -t 0.5976 -s 1 -d 0 -p tcp -e 1040 -c 1 -i 69 -a 1 -x {1.0 0.0 4 ------- null}
h -t 0.5976 -s 1 -d 0 -p tcp -e 1040 -c 1 -i 69 -a 1 -x {1.0 0.0 -1 ------- null}
r -t 0.602 -s 3 -d 2 -p cbr -e 1000 -c 3 -i 60 -a 3 -x {3.0 2.1 56 ------- null}
+ -t 0.604 -s 3 -d 2 -p cbr -e 1000 -c 3 -i 73 -a 3 -x {3.0 2.1 63 ------- null}
- -t 0.604 -s 3 -d 2 -p cbr -e 1000 -c 3 -i 73 -a 3 -x {3.0 2.1 63 ------- null}
h -t 0.604 -s 3 -d 2 -p cbr -e 1000 -c 3 -i 73 -a 3 -x {3.0 2.1 -1 ------- null}
- -t 0.60592 -s 1 -d 0 -p tcp -e 1040 -c 1 -i 71 -a 1 -x {1.0 0.0 5 ------- null}
h -t 0.60592 -s 1 -d 0 -p tcp -e 1040 -c 1 -i 71 -a 1 -x {1.0 0.0 -1 ------- null}
r -t 0.61 -s 3 -d 2 -p cbr -e 1000 -c 3 -i 61 -a 3 -x {3.0 2.1 57 ------- null}
+ -t 0.612 -s 3 -d 2 -p cbr -e 1000 -c 3 -i 74 -a 3 -x {3.0 2.1 64 ------- null}
- -t 0.612 -s 3 -d 2 -p cbr -e 1000 -c 3 -i 74 -a 3 -x {3.0 2.1 64 ------- null}
h -t 0.612 -s 3 -d 2 -p cbr -e 1000 -c 3 -i 74 -a 3 -x {3.0 2.1 -1 ------- null}
- -t 0.61424 -s 1 -d 0 -p tcp -e 1040 -c 1 -i 72 -a 1 -x {1.0 0.0 6 ------- null}
h -t 0.61424 -s 1 -d 0 -p tcp -e 1040 -c 1 -i 72 -a 1 -x {1.0 0.0 -1 ------- null}
r -t 0.6176 -s 1 -d 0 -p tcp -e 1040 -c 1 -i 68 -a 1 -x {1.0 0.0 3 ------- null}
+ -t 0.6176 -s 0 -d 1 -p ack -e 40 -c 1 -i 75 -a 1 -x {0.0 1.0 3 ------- null}
- -t 0.6176 -s 0 -d 1 -p ack -e 40 -c 1 -i 75 -a 1 -x {0.0 1.0 3 ------- null}
h -t 0.6176 -s 0 -d 1 -p ack -e 40 -c 1 -i 75 -a 1 -x {0.0 1.0 -1 ------- null}
r -t 0.618 -s 3 -d 2 -p cbr -e 1000 -c 3 -i 62 -a 3 -x {3.0 2.1 58 ------- null}
+ -t 0.62 -s 3 -d 2 -p cbr -e 1000 -c 3 -i 76 -a 3 -x {3.0 2.1 65 ------- null}
- -t 0.62 -s 3 -d 2 -p cbr -e 1000 -c 3 -i 76 -a 3 -x {3.0 2.1 65 ------- null}
h -t 0.62 -s 3 -d 2 -p cbr -e 1000 -c 3 -i 76 -a 3 -x {3.0 2.1 -1 ------- null}
r -t 0.62592 -s 1 -d 0 -p tcp -e 1040 -c 1 -i 69 -a 1 -x {1.0 0.0 4 ------- null}
+ -t 0.62592 -s 0 -d 1 -p ack -e 40 -c 1 -i 77 -a 1 -x {0.0 1.0 4 ------- null}
- -t 0.62592 -s 0 -d 1 -p ack -e 40 -c 1 -i 77 -a 1 -x {0.0 1.0 4 ------- null}
h -t 0.62592 -s 0 -d 1 -p ack -e 40 -c 1 -i 77 -a 1 -x {0.0 1.0 -1 ------- null}
r -t 0.626 -s 3 -d 2 -p cbr -e 1000 -c 3 -i 64 -a 3 -x {3.0 2.1 59 ------- null}
+ -t 0.628 -s 3 -d 2 -p cbr -e 1000 -c 3 -i 78 -a 3 -x {3.0 2.1 66 ------- null}
- -t 0.628 -s 3 -d 2 -p cbr -e 1000 -c 3 -i 78 -a 3 -x {3.0 2.1 66 ------- null}
h -t 0.628 -s 3 -d 2 -p cbr -e 1000 -c 3 -i 78 -a 3 -x {3.0 2.1 -1 ------- null}
r -t 0.634 -s 3 -d 2 -p cbr -e 1000 -c 3 -i 66 -a 3 -x {3.0 2.1 60 ------- null}
r -t 0.63424 -s 1 -d 0 -p tcp -e 1040 -c 1 -i 71 -a 1 -x {1.0 0.0 5 ------- null}
+ -t 0.63424 -s 0 -d 1 -p ack -e 40 -c 1 -i 79 -a 1 -x {0.0 1.0 5 ------- null}
- -t 0.63424 -s 0 -d 1 -p ack -e 40 -c 1 -i 79 -a 1 -x {0.0 1.0 5 ------- null}
h -t 0.63424 -s 0 -d 1 -p ack -e 40 -c 1 -i 79 -a 1 -x {0.0 1.0 -1 ------- null}
+ -t 0.636 -s 3 -d 2 -p cbr -e 1000 -c 3 -i 80 -a 3 -x {3.0 2.1 67 ------- null}
- -t 0.636 -s 3 -d 2 -p cbr -e 1000 -c 3 -i 80 -a 3 -x {3.0 2.1 67 ------- null}
h -t 0.636 -s 3 -d 2 -p cbr -e 1000 -c 3 -i 80 -a 3 -x {3.0 2.1 -1 ------- null}
r -t 0.63792 -s 0 -d 1 -p ack -e 40 -c 1 -i 75 -a 1 -x {0.0 1.0 3 ------- null}
+ -t 0.63792 -s 1 -d 0 -p tcp -e 1040 -c 1 -i 81 -a 1 -x {1.0 0.0 7 ------- null}
- -t 0.63792 -s 1 -d 0 -p tcp -e 1040 -c 1 -i 81 -a 1 -x {1.0 0.0 7 ------- null}
h -t 0.63792 -s 1 -d 0 -p tcp -e 1040 -c 1 -i 81 -a 1 -x {1.0 0.0 -1 ------- null}
+ -t 0.63792 -s 1 -d 0 -p tcp -e 1040 -c 1 -i 82 -a 1 -x {1.0 0.0 8 ------- null}
r -t 0.642 -s 3 -d 2 -p cbr -e 1000 -c 3 -i 67 -a 3 -x {3.0 2.1 61 ------- null}
r -t 0.64256 -s 1 -d 0 -p tcp -e 1040 -c 1 -i 72 -a 1 -x {1.0 0.0 6 ------- null}
+ -t 0.64256 -s 0 -d 1 -p ack -e 40 -c 1 -i 83 -a 1 -x {0.0 1.0 6 ------- null}
- -t 0.64256 -s 0 -d 1 -p ack -e 40 -c 1 -i 83 -a 1 -x {0.0 1.0 6 ------- null}
h -t 0.64256 -s 0 -d 1 -p ack -e 40 -c 1 -i 83 -a 1 -x {0.0 1.0 -1 ------- null}
+ -t 0.644 -s 3 -d 2 -p cbr -e 1000 -c 3 -i 84 -a 3 -x {3.0 2.1 68 ------- null}
- -t 0.644 -s 3 -d 2 -p cbr -e 1000 -c 3 -i 84 -a 3 -x {3.0 2.1 68 ------- null}
h -t 0.644 -s 3 -d 2 -p cbr -e 1000 -c 3 -i 84 -a 3 -x {3.0 2.1 -1 ------- null}
r -t 0.64624 -s 0 -d 1 -p ack -e 40 -c 1 -i 77 -a 1 -x {0.0 1.0 4 ------- null}
+ -t 0.64624 -s 1 -d 0 -p tcp -e 1040 -c 1 -i 85 -a 1 -x {1.0 0.0 9 ------- null}
+ -t 0.64624 -s 1 -d 0 -p tcp -e 1040 -c 1 -i 86 -a 1 -x {1.0 0.0 10 ------- null}
- -t 0.64624 -s 1 -d 0 -p tcp -e 1040 -c 1 -i 82 -a 1 -x {1.0 0.0 8 ------- null}
h -t 0.64624 -s 1 -d 0 -p tcp -e 1040 -c 1 -i 82 -a 1 -x {1.0 0.0 -1 ------- null}
r -t 0.65 -s 3 -d 2 -p cbr -e 1000 -c 3 -i 70 -a 3 -x {3.0 2.1 62 ------- null}
+ -t 0.652 -s 3 -d 2 -p cbr -e 1000 -c 3 -i 87 -a 3 -x {3.0 2.1 69 ------- null}
- -t 0.652 -s 3 -d 2 -p cbr -e 1000 -c 3 -i 87 -a 3 -x {3.0 2.1 69 ------- null}
h -t 0.652 -s 3 -d 2 -p cbr -e 1000 -c 3 -i 87 -a 3 -x {3.0 2.1 -1 ------- null}
r -t 0.65456 -s 0 -d 1 -p ack -e 40 -c 1 -i 79 -a 1 -x {0.0 1.0 5 ------- null}
+ -t 0.65456 -s 1 -d 0 -p tcp -e 1040 -c 1 -i 88 -a 1 -x {1.0 0.0 11 ------- null}
+ -t 0.65456 -s 1 -d 0 -p tcp -e 1040 -c 1 -i 89 -a 1 -x {1.0 0.0 12 ------- null}
- -t 0.65456 -s 1 -d 0 -p tcp -e 1040 -c 1 -i 85 -a 1 -x {1.0 0.0 9 ------- null}
h -t 0.65456 -s 1 -d 0 -p tcp -e 1040 -c 1 -i 85 -a 1 -x {1.0 0.0 -1 ------- null}
r -t 0.658 -s 3 -d 2 -p cbr -e 1000 -c 3 -i 73 -a 3 -x {3.0 2.1 63 ------- null}
+ -t 0.66 -s 3 -d 2 -p cbr -e 1000 -c 3 -i 90 -a 3 -x {3.0 2.1 70 ------- null}
- -t 0.66 -s 3 -d 2 -p cbr -e 1000 -c 3 -i 90 -a 3 -x {3.0 2.1 70 ------- null}
h -t 0.66 -s 3 -d 2 -p cbr -e 1000 -c 3 -i 90 -a 3 -x {3.0 2.1 -1 ------- null}
r -t 0.66288 -s 0 -d 1 -p ack -e 40 -c 1 -i 83 -a 1 -x {0.0 1.0 6 ------- null}
+ -t 0.66288 -s 1 -d 0 -p tcp -e 1040 -c 1 -i 91 -a 1 -x {1.0 0.0 13 ------- null}
+ -t 0.66288 -s 1 -d 0 -p tcp -e 1040 -c 1 -i 92 -a 1 -x {1.0 0.0 14 ------- null}
- -t 0.66288 -s 1 -d 0 -p tcp -e 1040 -c 1 -i 86 -a 1 -x {1.0 0.0 10 ------- null}
h -t 0.66288 -s 1 -d 0 -p tcp -e 1040 -c 1 -i 86 -a 1 -x {1.0 0.0 -1 ------- null}
r -t 0.666 -s 3 -d 2 -p cbr -e 1000 -c 3 -i 74 -a 3 -x {3.0 2.1 64 ------- null}
r -t 0.66624 -s 1 -d 0 -p tcp -e 1040 -c 1 -i 81 -a 1 -x {1.0 0.0 7 ------- null}
+ -t 0.66624 -s 0 -d 1 -p ack -e 40 -c 1 -i 93 -a 1 -x {0.0 1.0 7 ------- null}
- -t 0.66624 -s 0 -d 1 -p ack -e 40 -c 1 -i 93 -a 1 -x {0.0 1.0 7 ------- null}
h -t 0.66624 -s 0 -d 1 -p ack -e 40 -c 1 -i 93 -a 1 -x {0.0 1.0 -1 ------- null}
+ -t 0.668 -s 3 -d 2 -p cbr -e 1000 -c 3 -i 94 -a 3 -x {3.0 2.1 71 ------- null}
- -t 0.668 -s 3 -d 2 -p cbr -e 1000 -c 3 -i 94 -a 3 -x {3.0 2.1 71 ------- null}
h -t 0.668 -s 3 -d 2 -p cbr -e 1000 -c 3 -i 94 -a 3 -x {3.0 2.1 -1 ------- null}
- -t 0.6712 -s 1 -d 0 -p tcp -e 1040 -c 1 -i 88 -a 1 -x {1.0 0.0 11 ------- null}
h -t 0.6712 -s 1 -d 0 -p tcp -e 1040 -c 1 -i 88 -a 1 -x {1.0 0.0 -1 ------- null}
r -t 0.674 -s 3 -d 2 -p cbr -e 1000 -c 3 -i 76 -a 3 -x {3.0 2.1 65 ------- null}
r -t 0.67456 -s 1 -d 0 -p tcp -e 1040 -c 1 -i 82 -a 1 -x {1.0 0.0 8 ------- null}