+ 0.11032 2 3 tcp 40 ------- 1 0.0 3.0 0 0
- 0.11032 2 3 tcp 40 ------- 1 0.0 3.0 0 0
r 0.1216 2 3 tcp 40 ------- 1 0.0 3.0 0 0
+ 0.157936 2 3 tcp 592 ------- 1 0.0 3.0 1 2
- 0.157936 2 3 tcp 592 ------- 1 0.0 3.0 1 2
+ 0.162672 2 3 tcp 592 ------- 1 0.0 3.0 2 3
- 0.17688 2 3 tcp 592 ------- 1 0.0 3.0 2 3
r 0.18688 2 3 tcp 592 ------- 1 0.0 3.0 1 2
r 0.205824 2 3 tcp 592 ------- 1 0.0 3.0 2 3
+ 0.223216 2 3 tcp 592 ------- 1 0.0 3.0 3 6
- 0.223216 2 3 tcp 592 ------- 1 0.0 3.0 3 6
+ 0.227952 2 3 tcp 592 ------- 1 0.0 3.0 4 7
- 0.24216 2 3 tcp 592 ------- 1 0.0 3.0 4 7
+ 0.24216 2 3 tcp 592 ------- 1 0.0 3.0 5 8
+ 0.246896 2 3 tcp 592 ------- 1 0.0 3.0 6 9
r 0.25216 2 3 tcp 592 ------- 1 0.0 3.0 3 6
- 0.261104 2 3 tcp 592 ------- 1 0.0 3.0 5 8
r 0.271104 2 3 tcp 592 ------- 1 0.0 3.0 4 7
- 0.280048 2 3 tcp 592 ------- 1 0.0 3.0 6 9
+ 0.288496 2 3 tcp 592 ------- 1 0.0 3.0 7 12
r 0.290048 2 3 tcp 592 ------- 1 0.0 3.0 5 8
+ 0.293232 2 3 tcp 592 ------- 1 0.0 3.0 8 13
- 0.298992 2 3 tcp 592 ------- 1 0.0 3.0 7 12
+ 0.30744 2 3 tcp 592 ------- 1 0.0 3.0 9 15
r 0.308992 2 3 tcp 592 ------- 1 0.0 3.0 6 9
+ 0.312176 2 3 tcp 592 ------- 1 0.0 3.0 10 16
- 0.317936 2 3 tcp 592 ------- 1 0.0 3.0 8 13
+ 0.326384 2 3 tcp 592 ------- 1 0.0 3.0 11 18
r 0.327936 2 3 tcp 592 ------- 1 0.0 3.0 7 12
+ 0.33112 2 3 tcp 592 ------- 1 0.0 3.0 12 19
- 0.33688 2 3 tcp 592 ------- 1 0.0 3.0 9 15
+ 0.345328 2 3 tcp 592 ------- 1 0.0 3.0 13 21
r 0.34688 2 3 tcp 592 ------- 1 0.0 3.0 8 13
+ 0.350064 2 3 tcp 592 ------- 1 0.0 3.0 14 22
- 0.355824 2 3 tcp 592 ------- 1 0.0 3.0 10 16
+ 0.364272 2 3 tcp 592 ------- 1 0.0 3.0 15 24
r 0.365824 2 3 tcp 592 ------- 1 0.0 3.0 9 15
+ 0.369008 2 3 tcp 592 ------- 1 0.0 3.0 16 25
- 0.374768 2 3 tcp 592 ------- 1 0.0 3.0 11 18
+ 0.383216 2 3 tcp 592 ------- 1 0.0 3.0 17 27
r 0.384768 2 3 tcp 592 ------- 1 0.0 3.0 10 16
+ 0.387952 2 3 tcp 592 ------- 1 0.0 3.0 18 28
- 0.393712 2 3 tcp 592 ------- 1 0.0 3.0 12 19
+ 0.40216 2 3 tcp 592 ------- 1 0.0 3.0 19 30
r 0.403712 2 3 tcp 592 ------- 1 0.0 3.0 11 18
+ 0.406896 2 3 tcp 592 ------- 1 0.0 3.0 20 31
- 0.412656 2 3 tcp 592 ------- 1 0.0 3.0 13 21
+ 0.421104 2 3 tcp 592 ------- 1 0.0 3.0 21 33
r 0.422656 2 3 tcp 592 ------- 1 0.0 3.0 12 19
+ 0.42584 2 3 tcp 592 ------- 1 0.0 3.0 22 34
- 0.4316 2 3 tcp 592 ------- 1 0.0 3.0 14 22
+ 0.440048 2 3 tcp 592 ------- 1 0.0 3.0 23 36
r 0.4416 2 3 tcp 592 ------- 1 0.0 3.0 13 21
+ 0.444784 2 3 tcp 592 ------- 1 0.0 3.0 24 37
d 0.444784 2 3 tcp 592 ------- 1 0.0 3.0 24 37
- 0.450544 2 3 tcp 592 ------- 1 0.0 3.0 15 24
+ 0.458992 2 3 tcp 592 ------- 1 0.0 3.0 25 39
r 0.460544 2 3 tcp 592 ------- 1 0.0 3.0 14 22
+ 0.463728 2 3 tcp 592 ------- 1 0.0 3.0 26 40
d 0.463728 2 3 tcp 592 ------- 1 0.0 3.0 26 40
- 0.469488 2 3 tcp 592 ------- 1 0.0 3.0 16 25
+ 0.477936 2 3 tcp 592 ------- 1 0.0 3.0 27 42
r 0.479488 2 3 tcp 592 ------- 1 0.0 3.0 15 24
+ 0.482672 2 3 tcp 592 ------- 1 0.0 3.0 28 43
d 0.482672 2 3 tcp 592 ------- 1 0.0 3.0 28 43
- 0.488432 2 3 tcp 592 ------- 1 0.0 3.0 17 27
+ 0.49688 2 3 tcp 592 ------- 1 0.0 3.0 29 45
r 0.498432 2 3 tcp 592 ------- 1 0.0 3.0 16 25
+ 0.501616 2 3 tcp 592 ------- 1 0.0 3.0 30 46
d 0.501616 2 3 tcp 592 ------- 1 0.0 3.0 30 46
- 0.507376 2 3 tcp 592 ------- 1 0.0 3.0 18 28
+ 0.515824 2 3 tcp 592 ------- 1 0.0 3.0 31 48
r 0.517376 2 3 tcp 592 ------- 1 0.0 3.0 17 27
+ 0.52056 2 3 tcp 592 ------- 1 0.0 3.0 32 49
d 0.52056 2 3 tcp 592 ------- 1 0.0 3.0 32 49
- 0.52632 2 3 tcp 592 ------- 1 0.0 3.0 19 30
+ 0.534768 2 3 tcp 592 ------- 1 0.0 3.0 33 51
r 0.53632 2 3 tcp 592 ------- 1 0.0 3.0 18 28
+ 0.539504 2 3 tcp 592 ------- 1 0.0 3.0 34 52
d 0.539504 2 3 tcp 592 ------- 1 0.0 3.0 34 52
- 0.545264 2 3 tcp 592 ------- 1 0.0 3.0 20 31
+ 0.553712 2 3 tcp 592 ------- 1 0.0 3.0 35 54
r 0.555264 2 3 tcp 592 ------- 1 0.0 3.0 19 30
+ 0.558448 2 3 tcp 592 ------- 1 0.0 3.0 36 55
d 0.558448 2 3 tcp 592 ------- 1 0.0 3.0 36 55
- 0.564208 2 3 tcp 592 ------- 1 0.0 3.0 21 33
+ 0.572656 2 3 tcp 592 ------- 1 0.0 3.0 37 57
r 0.574208 2 3 tcp 592 ------- 1 0.0 3.0 20 31
+ 0.577392 2 3 tcp 592 ------- 1 0.0 3.0 38 58
d 0.577392 2 3 tcp 592 ------- 1 0.0 3.0 38 58
- 0.583152 2 3 tcp 592 ------- 1 0.0 3.0 22 34
+ 0.5916 2 3 tcp 592 ------- 1 0.0 3.0 39 60
r 0.593152 2 3 tcp 592 ------- 1 0.0 3.0 21 33
+ 0.596336 2 3 tcp 592 ------- 1 0.0 3.0 40 61
d 0.596336 2 3 tcp 592 ------- 1 0.0 3.0 40 61
- 0.602096 2 3 tcp 592 ------- 1 0.0 3.0 23 36
+ 0.610544 2 3 tcp 592 ------- 1 0.0 3.0 41 63
r 0.612096 2 3 tcp 592 ------- 1 0.0 3.0 22 34
+ 0.61528 2 3 tcp 592 ------- 1 0.0 3.0 42 64
d 0.61528 2 3 tcp 592 ------- 1 0.0 3.0 42 64
- 0.62104 2 3 tcp 592 ------- 1 0.0 3.0 25 39
+ 0.629488 2 3 tcp 592 ------- 1 0.0 3.0 43 66
r 0.63104 2 3 tcp 592 ------- 1 0.0 3.0 23 36
+ 0.634224 2 3 tcp 592 ------- 1 0.0 3.0 44 67
d 0.634224 2 3 tcp 592 ------- 1 0.0 3.0 44 67
- 0.639984 2 3 tcp 592 ------- 1 0.0 3.0 27 42
+ 0.648432 2 3 tcp 592 ------- 1 0.0 3.0 45 69
r 0.649984 2 3 tcp 592 ------- 1 0.0 3.0 25 39
+ 0.653168 2 3 tcp 592 ------- 1 0.0 3.0 46 70
d 0.653168 2 3 tcp 592 ------- 1 0.0 3.0 46 70
- 0.658928 2 3 tcp 592 ------- 1 0.0 3.0 29 45
+ 0.667376 2 3 tcp 592 ------- 1 0.0 3.0 47 72
r 0.668928 2 3 tcp 592 ------- 1 0.0 3.0 27 42
+ 0.672112 2 3 tcp 592 ------- 1 0.0 3.0 48 73
d 0.672112 2 3 tcp 592 ------- 1 0.0 3.0 48 73
- 0.677872 2 3 tcp 592 ------- 1 0.0 3.0 31 48
+ 0.68632 2 3 tcp 592 ------- 1 0.0 3.0 49 75
r 0.687872 2 3 tcp 592 ------- 1 0.0 3.0 29 45
- 0.696816 2 3 tcp 592 ------- 1 0.0 3.0 33 51
+ 0.705264 2 3 tcp 592 ------- 1 0.0 3.0 50 77
r 0.706816 2 3 tcp 592 ------- 1 0.0 3.0 31 48
- 0.71576 2 3 tcp 592 ------- 1 0.0 3.0 35 54
+ 0.724208 2 3 tcp 592 ---A--- 1 0.0 3.0 24 79
r 0.72576 2 3 tcp 592 ------- 1 0.0 3.0 33 51
- 0.734704 2 3 tcp 592 ------- 1 0.0 3.0 37 57
r 0.744704 2 3 tcp 592 ------- 1 0.0 3.0 35 54
- 0.753648 2 3 tcp 592 ------- 1 0.0 3.0 39 60
r 0.763648 2 3 tcp 592 ------- 1 0.0 3.0 37 57
- 0.772592 2 3 tcp 592 ------- 1 0.0 3.0 41 63
r 0.782592 2 3 tcp 592 ------- 1 0.0 3.0 39 60
- 0.791536 2 3 tcp 592 ------- 1 0.0 3.0 43 66
r 0.801536 2 3 tcp 592 ------- 1 0.0 3.0 41 63
- 0.81048 2 3 tcp 592 ------- 1 0.0 3.0 45 69
r 0.82048 2 3 tcp 592 ------- 1 0.0 3.0 43 66
- 0.829424 2 3 tcp 592 ------- 1 0.0 3.0 47 72
r 0.839424 2 3 tcp 592 ------- 1 0.0 3.0 45 69
- 0.848368 2 3 tcp 592 ------- 1 0.0 3.0 49 75
r 0.858368 2 3 tcp 592 ------- 1 0.0 3.0 47 72
- 0.867312 2 3 tcp 592 ------- 1 0.0 3.0 50 77
r 0.877312 2 3 tcp 592 ------- 1 0.0 3.0 49 75
- 0.886256 2 3 tcp 592 ---A--- 1 0.0 3.0 24 79
r 0.896256 2 3 tcp 592 ------- 1 0.0 3.0 50 77
r 0.9152 2 3 tcp 592 ---A--- 1 0.0 3.0 24 79
+ 1.201536 2 3 tcp 592 ---A--- 1 0.0 3.0 26 91
- 1.201536 2 3 tcp 592 ---A--- 1 0.0 3.0 26 91
r 1.23048 2 3 tcp 592 ---A--- 1 0.0 3.0 26 91
+ 1.266816 2 3 tcp 592 ------- 1 0.0 3.0 28 93
- 1.266816 2 3 tcp 592 ------- 1 0.0 3.0 28 93
+ 1.271552 2 3 tcp 592 ------- 1 0.0 3.0 29 94
- 1.28576 2 3 tcp 592 ------- 1 0.0 3.0 29 94
r 1.29576 2 3 tcp 592 ------- 1 0.0 3.0 28 93
r 1.314704 2 3 tcp 592 ------- 1 0.0 3.0 29 94
+ 1.332096 2 3 tcp 592 ------- 1 0.0 3.0 30 97
- 1.332096 2 3 tcp 592 ------- 1 0.0 3.0 30 97
+ 1.336832 2 3 tcp 592 ------- 1 0.0 3.0 31 98
+ 1.341568 2 3 tcp 592 ------- 1 0.0 3.0 32 99
- 1.35104 2 3 tcp 592 ------- 1 0.0 3.0 31 98
+ 1.35104 2 3 tcp 592 ------- 1 0.0 3.0 33 100
r 1.36104 2 3 tcp 592 ------- 1 0.0 3.0 30 97
- 1.369984 2 3 tcp 592 ------- 1 0.0 3.0 32 99
r 1.379984 2 3 tcp 592 ------- 1 0.0 3.0 31 98
- 1.388928 2 3 tcp 592 ------- 1 0.0 3.0 33 100
+ 1.397376 2 3 tcp 592 ------- 1 0.0 3.0 34 103
r 1.398928 2 3 tcp 592 ------- 1 0.0 3.0 32 99
+ 1.402112 2 3 tcp 592 ------- 1 0.0 3.0 35 104
- 1.407872 2 3 tcp 592 ------- 1 0.0 3.0 34 103
+ 1.41632 2 3 tcp 592 ------- 1 0.0 3.0 36 106
r 1.417872 2 3 tcp 592 ------- 1 0.0 3.0 33 100
- 1.426816 2 3 tcp 592 ------- 1 0.0 3.0 35 104
+ 1.435264 2 3 tcp 592 ------- 1 0.0 3.0 37 108
r 1.436816 2 3 tcp 592 ------- 1 0.0 3.0 34 103
+ 1.44 2 3 tcp 592 ------- 1 0.0 3.0 38 109
- 1.44576 2 3 tcp 592 ------- 1 0.0 3.0 36 106
+ 1.454208 2 3 tcp 592 ------- 1 0.0 3.0 39 111
r 1.45576 2 3 tcp 592 ------- 1 0.0 3.0 35 104
- 1.464704 2 3 tcp 592 ------- 1 0.0 3.0 37 108
+ 1.473152 2 3 tcp 592 ------- 1 0.0 3.0 40 113
r 1.474704 2 3 tcp 592 ------- 1 0.0 3.0 36 106
+ 1.477888 2 3 tcp 592 ------- 1 0.0 3.0 41 114
- 1.483648 2 3 tcp 592 ------- 1 0.0 3.0 38 109
+ 1.492096 2 3 tcp 592 ------- 1 0.0 3.0 42 116
r 1.493648 2 3 tcp 592 ------- 1 0.0 3.0 37 108
- 1.502592 2 3 tcp 592 ------- 1 0.0 3.0 39 111
+ 1.51104 2 3 tcp 592 ------- 1 0.0 3.0 43 118
r 1.512592 2 3 tcp 592 ------- 1 0.0 3.0 38 109
- 1.521536 2 3 tcp 592 ------- 1 0.0 3.0 40 113
+ 1.529984 2 3 tcp 592 ------- 1 0.0 3.0 44 120
r 1.531536 2 3 tcp 592 ------- 1 0.0 3.0 39 111
- 1.54048 2 3 tcp 592 ------- 1 0.0 3.0 41 114
+ 1.548928 2 3 tcp 592 ------- 1 0.0 3.0 45 122
r 1.55048 2 3 tcp 592 ------- 1 0.0 3.0 40 113
- 1.559424 2 3 tcp 592 ------- 1 0.0 3.0 42 116
+ 1.567872 2 3 tcp 592 ------- 1 0.0 3.0 46 124
r 1.569424 2 3 tcp 592 ------- 1 0.0 3.0 41 114
- 1.578368 2 3 tcp 592 ------- 1 0.0 3.0 43 118
+ 1.586816 2 3 tcp 592 ------- 1 0.0 3.0 47 126
r 1.588368 2 3 tcp 592 ------- 1 0.0 3.0 42 116
- 1.597312 2 3 tcp 592 ------- 1 0.0 3.0 44 120
+ 1.60576 2 3 tcp 592 ------- 1 0.0 3.0 48 128
r 1.607312 2 3 tcp 592 ------- 1 0.0 3.0 43 118
- 1.616256 2 3 tcp 592 ------- 1 0.0 3.0 45 122
+ 1.624704 2 3 tcp 592 ------- 1 0.0 3.0 49 130
r 1.626256 2 3 tcp 592 ------- 1 0.0 3.0 44 120
- 1.6352 2 3 tcp 592 ------- 1 0.0 3.0 46 124
+ 1.643648 2 3 tcp 592 ------- 1 0.0 3.0 50 132
r 1.6452 2 3 tcp 592 ------- 1 0.0 3.0 45 122
- 1.654144 2 3 tcp 592 ------- 1 0.0 3.0 47 126
+ 1.662592 2 3 tcp 592 ------- 1 0.0 3.0 51 134
r 1.664144 2 3 tcp 592 ------- 1 0.0 3.0 46 124
- 1.673088 2 3 tcp 592 ------- 1 0.0 3.0 48 128
+ 1.681536 2 3 tcp 592 ------- 1 0.0 3.0 52 136
r 1.683088 2 3 tcp 592 ------- 1 0.0 3.0 47 126
- 1.692032 2 3 tcp 592 ------- 1 0.0 3.0 49 130
+ 1.70048 2 3 tcp 592 ------- 1 0.0 3.0 53 138
r 1.702032 2 3 tcp 592 ------- 1 0.0 3.0 48 128
- 1.710976 2 3 tcp 592 ------- 1 0.0 3.0 50 132
+ 1.719424 2 3 tcp 592 ------- 1 0.0 3.0 54 140
r 1.720976 2 3 tcp 592 ------- 1 0.0 3.0 49 130
- 1.72992 2 3 tcp 592 ------- 1 0.0 3.0 51 134
+ 1.738368 2 3 tcp 592 ------- 1 0.0 3.0 55 142
r 1.73992 2 3 tcp 592 ------- 1 0.0 3.0 50 132
+ 1.743104 2 3 tcp 592 ------- 1 0.0 3.0 56 143
+ 1.74784 2 3 tcp 592 ------- 1 0.0 3.0 57 144
- 1.748864 2 3 tcp 592 ------- 1 0.0 3.0 52 136
+ 1.757312 2 3 tcp 592 ------- 1 0.0 3.0 58 146
r 1.758864 2 3 tcp 592 ------- 1 0.0 3.0 51 134
- 1.767808 2 3 tcp 592 ------- 1 0.0 3.0 53 138
+ 1.776256 2 3 tcp 592 ------- 1 0.0 3.0 59 148
r 1.777808 2 3 tcp 592 ------- 1 0.0 3.0 52 136
- 1.786752 2 3 tcp 592 ------- 1 0.0 3.0 54 140
r 1.796752 2 3 tcp 592 ------- 1 0.0 3.0 53 138
- 1.805696 2 3 tcp 592 ------- 1 0.0 3.0 55 142
r 1.815696 2 3 tcp 592 ------- 1 0.0 3.0 54 140
- 1.82464 2 3 tcp 592 ------- 1 0.0 3.0 56 143
+ 1.833088 2 3 tcp 592 ------- 1 0.0 3.0 60 152
r 1.83464 2 3 tcp 592 ------- 1 0.0 3.0 55 142
- 1.843584 2 3 tcp 592 ------- 1 0.0 3.0 57 144
+ 1.852032 2 3 tcp 592 ------- 1 0.0 3.0 61 154
r 1.853584 2 3 tcp 592 ------- 1 0.0 3.0 56 143
- 1.862528 2 3 tcp 592 ------- 1 0.0 3.0 58 146
+ 1.870976 2 3 tcp 592 ------- 1 0.0 3.0 62 156
r 1.872528 2 3 tcp 592 ------- 1 0.0 3.0 57 144
- 1.881472 2 3 tcp 592 ------- 1 0.0 3.0 59 148
+ 1.88992 2 3 tcp 592 ------- 1 0.0 3.0 63 158
r 1.891472 2 3 tcp 592 ------- 1 0.0 3.0 58 146
- 1.900416 2 3 tcp 592 ------- 1 0.0 3.0 60 152
+ 1.908864 2 3 tcp 592 ------- 1 0.0 3.0 64 160
r 1.910416 2 3 tcp 592 ------- 1 0.0 3.0 59 148
+ 1.9136 2 3 tcp 592 ------- 1 0.0 3.0 65 161
- 1.91936 2 3 tcp 592 ------- 1 0.0 3.0 61 154
+ 1.927808 2 3 tcp 592 ------- 1 0.0 3.0 66 163
r 1.92936 2 3 tcp 592 ------- 1 0.0 3.0 60 152
- 1.938304 2 3 tcp 592 ------- 1 0.0 3.0 62 156
+ 1.946752 2 3 tcp 592 ------- 1 0.0 3.0 67 165
r 1.948304 2 3 tcp 592 ------- 1 0.0 3.0 61 154
- 1.957248 2 3 tcp 592 ------- 1 0.0 3.0 63 158
+ 1.965696 2 3 tcp 592 ------- 1 0.0 3.0 68 167
r 1.967248 2 3 tcp 592 ------- 1 0.0 3.0 62 156
- 1.976192 2 3 tcp 592 ------- 1 0.0 3.0 64 160
+ 1.98464 2 3 tcp 592 ------- 1 0.0 3.0 69 169
r 1.986192 2 3 tcp 592 ------- 1 0.0 3.0 63 158
- 1.995136 2 3 tcp 592 ------- 1 0.0 3.0 65 161
+ 2.003584 2 3 tcp 592 ------- 1 0.0 3.0 70 171
r 2.005136 2 3 tcp 592 ------- 1 0.0 3.0 64 160
- 2.01408 2 3 tcp 592 ------- 1 0.0 3.0 66 163
+ 2.022528 2 3 tcp 592 ------- 1 0.0 3.0 71 173
r 2.02408 2 3 tcp 592 ------- 1 0.0 3.0 65 161
- 2.033024 2 3 tcp 592 ------- 1 0.0 3.0 67 165
+ 2.041472 2 3 tcp 592 ------- 1 0.0 3.0 72 175
r 2.043024 2 3 tcp 592 ------- 1 0.0 3.0 66 163
- 2.051968 2 3 tcp 592 ------- 1 0.0 3.0 68 167
+ 2.060416 2 3 tcp 592 ------- 1 0.0 3.0 73 177
r 2.061968 2 3 tcp 592 ------- 1 0.0 3.0 67 165
- 2.070912 2 3 tcp 592 ------- 1 0.0 3.0 69 169
+ 2.07936 2 3 tcp 592 ------- 1 0.0 3.0 74 179
r 2.080912 2 3 tcp 592 ------- 1 0.0 3.0 68 167
+ 2.084096 2 3 tcp 592 ------- 1 0.0 3.0 75 180
- 2.089856 2 3 tcp 592 ------- 1 0.0 3.0 70 171
+ 2.098304 2 3 tcp 592 ------- 1 0.0 3.0 76 182
r 2.099856 2 3 tcp 592 ------- 1 0.0 3.0 69 169
- 2.1088 2 3 tcp 592 ------- 1 0.0 3.0 71 173
+ 2.117248 2 3 tcp 592 ------- 1 0.0 3.0 77 184
r 2.1188 2 3 tcp 592 ------- 1 0.0 3.0 70 171
- 2.127744 2 3 tcp 592 ------- 1 0.0 3.0 72 175
+ 2.136192 2 3 tcp 592 ------- 1 0.0 3.0 78 186
r 2.137744 2 3 tcp 592 ------- 1 0.0 3.0 71 173
- 2.146688 2 3 tcp 592 ------- 1 0.0 3.0 73 177
+ 2.155136 2 3 tcp 592 ------- 1 0.0 3.0 79 188
r 2.156688 2 3 tcp 592 ------- 1 0.0 3.0 72 175
- 2.165632 2 3 tcp 592 ------- 1 0.0 3.0 74 179
+ 2.17408 2 3 tcp 592 ------- 1 0.0 3.0 80 190
r 2.175632 2 3 tcp 592 ------- 1 0.0 3.0 73 177
- 2.184576 2 3 tcp 592 ------- 1 0.0 3.0 75 180
+ 2.193024 2 3 tcp 592 ------- 1 0.0 3.0 81 192
r 2.194576 2 3 tcp 592 ------- 1 0.0 3.0 74 179
- 2.20352 2 3 tcp 592 ------- 1 0.0 3.0 76 182
+ 2.211968 2 3 tcp 592 ------- 1 0.0 3.0 82 194
r 2.21352 2 3 tcp 592 ------- 1 0.0 3.0 75 180
- 2.222464 2 3 tcp 592 ------- 1 0.0 3.0 77 184
+ 2.230912 2 3 tcp 592 ------- 1 0.0 3.0 83 196
r 2.232464 2 3 tcp 592 ------- 1 0.0 3.0 76 182
- 2.241408 2 3 tcp 592 ------- 1 0.0 3.0 78 186
+ 2.249856 2 3 tcp 592 ------- 1 0.0 3.0 84 198
r 2.251408 2 3 tcp 592 ------- 1 0.0 3.0 77 184
+ 2.254592 2 3 tcp 592 ------- 1 0.0 3.0 85 199
- 2.260352 2 3 tcp 592 ------- 1 0.0 3.0 79 188
+ 2.2688 2 3 tcp 592 ------- 1 0.0 3.0 86 201
r 2.270352 2 3 tcp 592 ------- 1 0.0 3.0 78 186
- 2.279296 2 3 tcp 592 ------- 1 0.0 3.0 80 190
+ 2.287744 2 3 tcp 592 ------- 1 0.0 3.0 87 203
r 2.289296 2 3 tcp 592 ------- 1 0.0 3.0 79 188
- 2.29824 2 3 tcp 592 ------- 1 0.0 3.0 81 192
+ 2.306688 2 3 tcp 592 ------- 1 0.0 3.0 88 205
r 2.30824 2 3 tcp 592 ------- 1 0.0 3.0 80 190
- 2.317184 2 3 tcp 592 ------- 1 0.0 3.0 82 194
+ 2.325632 2 3 tcp 592 ------- 1 0.0 3.0 89 207
r 2.327184 2 3 tcp 592 ------- 1 0.0 3.0 81 192
- 2.336128 2 3 tcp 592 ------- 1 0.0 3.0 83 196
+ 2.344576 2 3 tcp 592 ------- 1 0.0 3.0 90 209
r 2.346128 2 3 tcp 592 ------- 1 0.0 3.0 82 194
- 2.355072 2 3 tcp 592 ------- 1 0.0 3.0 84 198
+ 2.36352 2 3 tcp 592 ------- 1 0.0 3.0 91 211
r 2.365072 2 3 tcp 592 ------- 1 0.0 3.0 83 196
- 2.374016 2 3 tcp 592 ------- 1 0.0 3.0 85 199
+ 2.382464 2 3 tcp 592 ------- 1 0.0 3.0 92 213
r 2.384016 2 3 tcp 592 ------- 1 0.0 3.0 84 198
- 2.39296 2 3 tcp 592 ------- 1 0.0 3.0 86 201
+ 2.401408 2 3 tcp 592 ------- 1 0.0 3.0 93 215
r 2.40296 2 3 tcp 592 ------- 1 0.0 3.0 85 199
- 2.411904 2 3 tcp 592 ------- 1 0.0 3.0 87 203
+ 2.420352 2 3 tcp 592 ------- 1 0.0 3.0 94 217
r 2.421904 2 3 tcp 592 ------- 1 0.0 3.0 86 201
- 2.430848 2 3 tcp 592 ------- 1 0.0 3.0 88 205
+ 2.439296 2 3 tcp 592 ------- 1 0.0 3.0 95 219
r 2.440848 2 3 tcp 592 ------- 1 0.0 3.0 87 203
- 2.449792 2 3 tcp 592 ------- 1 0.0 3.0 89 207
+ 2.45824 2 3 tcp 592 ------- 1 0.0 3.0 96 221
r 2.459792 2 3 tcp 592 ------- 1 0.0 3.0 88 205
+ 2.462976 2 3 tcp 592 ------- 1 0.0 3.0 97 222
- 2.468736 2 3 tcp 592 ------- 1 0.0 3.0 90 209
+ 2.477184 2 3 tcp 592 ------- 1 0.0 3.0 98 224
r 2.478736 2 3 tcp 592 ------- 1 0.0 3.0 89 207
- 2.48768 2 3 tcp 592 ------- 1 0.0 3.0 91 211
+ 2.496128 2 3 tcp 592 ------- 1 0.0 3.0 99 226
r 2.49768 2 3 tcp 592 ------- 1 0.0 3.0 90 209
- 2.506624 2 3 tcp 592 ------- 1 0.0 3.0 92 213
+ 2.515072 2 3 tcp 592 ------- 1 0.0 3.0 100 228
r 2.516624 2 3 tcp 592 ------- 1 0.0 3.0 91 211
- 2.525568 2 3 tcp 592 ------- 1 0.0 3.0 93 215
+ 2.534016 2 3 tcp 592 ------- 1 0.0 3.0 101 230
r 2.535568 2 3 tcp 592 ------- 1 0.0 3.0 92 213
- 2.544512 2 3 tcp 592 ------- 1 0.0 3.0 94 217
+ 2.55296 2 3 tcp 592 ------- 1 0.0 3.0 102 232
r 2.554512 2 3 tcp 592 ------- 1 0.0 3.0 93 215
- 2.563456 2 3 tcp 592 ------- 1 0.0 3.0 95 219
+ 2.571904 2 3 tcp 592 ------- 1 0.0 3.0 103 234
r 2.573456 2 3 tcp 592 ------- 1 0.0 3.0 94 217
- 2.5824 2 3 tcp 592 ------- 1 0.0 3.0 96 221
+ 2.590848 2 3 tcp 592 ------- 1 0.0 3.0 104 236
r 2.5924 2 3 tcp 592 ------- 1 0.0 3.0 95 219
- 2.601344 2 3 tcp 592 ------- 1 0.0 3.0 97 222
+ 2.609792 2 3 tcp 592 ------- 1 0.0 3.0 105 238
r 2.611344 2 3 tcp 592 ------- 1 0.0 3.0 96 221
- 2.620288 2 3 tcp 592 ------- 1 0.0 3.0 98 224
+ 2.628736 2 3 tcp 592 ------- 1 0.0 3.0 106 240
r 2.630288 2 3 tcp 592 ------- 1 0.0 3.0 97 222
- 2.639232 2 3 tcp 592 ------- 1 0.0 3.0 99 226
+ 2.64768 2 3 tcp 592 ------- 1 0.0 3.0 107 242
r 2.649232 2 3 tcp 592 ------- 1 0.0 3.0 98 224
- 2.658176 2 3 tcp 592 ------- 1 0.0 3.0 100 228
+ 2.666624 2 3 tcp 592 ------- 1 0.0 3.0 108 244
r 2.668176 2 3 tcp 592 ------- 1 0.0 3.0 99 226
+ 2.67136 2 3 tcp 592 ------- 1 0.0 3.0 109 245
- 2.67712 2 3 tcp 592 ------- 1 0.0 3.0 101 230
+ 2.685568 2 3 tcp 592 ------- 1 0.0 3.0 110 247
r 2.68712 2 3 tcp 592 ------- 1 0.0 3.0 100 228
- 2.696064 2 3 tcp 592 ------- 1 0.0 3.0 102 232
+ 2.704512 2 3 tcp 592 ------- 1 0.0 3.0 111 249
r 2.706064 2 3 tcp 592 ------- 1 0.0 3.0 101 230
- 2.715008 2 3 tcp 592 ------- 1 0.0 3.0 103 234
+ 2.723456 2 3 tcp 592 ------- 1 0.0 3.0 112 251
r 2.725008 2 3 tcp 592 ------- 1 0.0 3.0 102 232
- 2.733952 2 3 tcp 592 ------- 1 0.0 3.0 104 236
+ 2.7424 2 3 tcp 592 ------- 1 0.0 3.0 113 253
r 2.743952 2 3 tcp 592 ------- 1 0.0 3.0 103 234
- 2.752896 2 3 tcp 592 ------- 1 0.0 3.0 105 238
+ 2.761344 2 3 tcp 592 ------- 1 0.0 3.0 114 255
r 2.762896 2 3 tcp 592 ------- 1 0.0 3.0 104 236
- 2.77184 2 3 tcp 592 ------- 1 0.0 3.0 106 240
+ 2.780288 2 3 tcp 592 ------- 1 0.0 3.0 115 257
r 2.78184 2 3 tcp 592 ------- 1 0.0 3.0 105 238
- 2.790784 2 3 tcp 592 ------- 1 0.0 3.0 107 242
+ 2.799232 2 3 tcp 592 ------- 1 0.0 3.0 116 259
r 2.800784 2 3 tcp 592 ------- 1 0.0 3.0 106 240
- 2.809728 2 3 tcp 592 ------- 1 0.0 3.0 108 244
+ 2.818176 2 3 tcp 592 ------- 1 0.0 3.0 117 261
r 2.819728 2 3 tcp 592 ------- 1 0.0 3.0 107 242
- 2.828672 2 3 tcp 592 ------- 1 0.0 3.0 109 245
+ 2.83712 2 3 tcp 592 ------- 1 0.0 3.0 118 263
r 2.838672 2 3 tcp 592 ------- 1 0.0 3.0 108 244
- 2.847616 2 3 tcp 592 ------- 1 0.0 3.0 110 247
+ 2.856064 2 3 tcp 592 ------- 1 0.0 3.0 119 265
r 2.857616 2 3 tcp 592 ------- 1 0.0 3.0 109 245
- 2.86656 2 3 tcp 592 ------- 1 0.0 3.0 111 249
+ 2.875008 2 3 tcp 592 ------- 1 0.0 3.0 120 267
r 2.87656 2 3 tcp 592 ------- 1 0.0 3.0 110 247
- 2.885504 2 3 tcp 592 ------- 1 0.0 3.0 112 251
+ 2.893952 2 3 tcp 592 ------- 1 0.0 3.0 121 269
r 2.895504 2 3 tcp 592 ------- 1 0.0 3.0 111 249
- 2.904448 2 3 tcp 592 ------- 1 0.0 3.0 113 253
+ 2.912896 2 3 tcp 592 ------- 1 0.0 3.0 122 271
r 2.914448 2 3 tcp 592 ------- 1 0.0 3.0 112 251
+ 2.917632 2 3 tcp 592 ------- 1 0.0 3.0 123 272
d 2.917632 2 3 tcp 592 ------- 1 0.0 3.0 123 272
- 2.923392 2 3 tcp 592 ------- 1 0.0 3.0 114 255
+ 2.93184 2 3 tcp 592 ------- 1 0.0 3.0 124 274
r 2.933392 2 3 tcp 592 ------- 1 0.0 3.0 113 253
- 2.942336 2 3 tcp 592 ------- 1 0.0 3.0 115 257
+ 2.950784 2 3 tcp 592 ------- 1 0.0 3.0 125 276
r 2.952336 2 3 tcp 592 ------- 1 0.0 3.0 114 255
- 2.96128 2 3 tcp 592 ------- 1 0.0 3.0 116 259
+ 2.969728 2 3 tcp 592 ------- 1 0.0 3.0 126 278
r 2.97128 2 3 tcp 592 ------- 1 0.0 3.0 115 257
- 2.980224 2 3 tcp 592 ------- 1 0.0 3.0 117 261
+ 2.988672 2 3 tcp 592 ------- 1 0.0 3.0 127 280
r 2.990224 2 3 tcp 592 ------- 1 0.0 3.0 116 259
- 2.999168 2 3 tcp 592 ------- 1 0.0 3.0 118 263
+ 3.007616 2 3 tcp 592 ------- 1 0.0 3.0 128 282
r 3.009168 2 3 tcp 592 ------- 1 0.0 3.0 117 261
- 3.018112 2 3 tcp 592 ------- 1 0.0 3.0 119 265
+ 3.02656 2 3 tcp 592 ------- 1 0.0 3.0 129 284
r 3.028112 2 3 tcp 592 ------- 1 0.0 3.0 118 263
- 3.037056 2 3 tcp 592 ------- 1 0.0 3.0 120 267
+ 3.045504 2 3 tcp 592 ------- 1 0.0 3.0 130 286
r 3.047056 2 3 tcp 592 ------- 1 0.0 3.0 119 265
- 3.056 2 3 tcp 592 ------- 1 0.0 3.0 121 269
+ 3.064448 2 3 tcp 592 ------- 1 0.0 3.0 131 288
r 3.066 2 3 tcp 592 ------- 1 0.0 3.0 120 267
- 3.074944 2 3 tcp 592 ------- 1 0.0 3.0 122 271
+ 3.083392 2 3 tcp 592 ------- 1 0.0 3.0 132 290
r 3.084944 2 3 tcp 592 ------- 1 0.0 3.0 121 269
- 3.093888 2 3 tcp 592 ------- 1 0.0 3.0 124 274
+ 3.102336 2 3 tcp 592 ------- 1 0.0 3.0 133 292
r 3.103888 2 3 tcp 592 ------- 1 0.0 3.0 122 271
- 3.112832 2 3 tcp 592 ------- 1 0.0 3.0 125 276
+ 3.12128 2 3 tcp 592 ------- 1 0.0 3.0 134 294
r 3.122832 2 3 tcp 592 ------- 1 0.0 3.0 124 274
- 3.131776 2 3 tcp 592 ------- 1 0.0 3.0 126 278
+ 3.140224 2 3 tcp 592 ------- 1 0.0 3.0 135 296
r 3.141776 2 3 tcp 592 ------- 1 0.0 3.0 125 276
- 3.15072 2 3 tcp 592 ------- 1 0.0 3.0 127 280
+ 3.159168 2 3 tcp 592 ------- 1 0.0 3.0 136 298
r 3.16072 2 3 tcp 592 ------- 1 0.0 3.0 126 278
- 3.169664 2 3 tcp 592 ------- 1 0.0 3.0 128 282
+ 3.178112 2 3 tcp 592 ------- 1 0.0 3.0 137 300
r 3.179664 2 3 tcp 592 ------- 1 0.0 3.0 127 280
- 3.188608 2 3 tcp 592 ------- 1 0.0 3.0 129 284
+ 3.197056 2 3 tcp 592 ---A--- 1 0.0 3.0 123 302
r 3.198608 2 3 tcp 592 ------- 1 0.0 3.0 128 282
- 3.207552 2 3 tcp 592 ------- 1 0.0 3.0 130 286
r 3.217552 2 3 tcp 592 ------- 1 0.0 3.0 129 284
- 3.226496 2 3 tcp 592 ------- 1 0.0 3.0 131 288
r 3.236496 2 3 tcp 592 ------- 1 0.0 3.0 130 286
- 3.24544 2 3 tcp 592 ------- 1 0.0 3.0 132 290
r 3.25544 2 3 tcp 592 ------- 1 0.0 3.0 131 288
- 3.264384 2 3 tcp 592 ------- 1 0.0 3.0 133 292
r 3.274384 2 3 tcp 592 ------- 1 0.0 3.0 132 290
- 3.283328 2 3 tcp 592 ------- 1 0.0 3.0 134 294
r 3.293328 2 3 tcp 592 ------- 1 0.0 3.0 133 292
- 3.302272 2 3 tcp 592 ------- 1 0.0 3.0 135 296
r 3.312272 2 3 tcp 592 ------- 1 0.0 3.0 134 294
- 3.321216 2 3 tcp 592 ------- 1 0.0 3.0 136 298
+ 3.329664 2 3 tcp 592 ------- 1 0.0 3.0 138 310
r 3.331216 2 3 tcp 592 ------- 1 0.0 3.0 135 296
- 3.34016 2 3 tcp 592 ------- 1 0.0 3.0 137 300
+ 3.348608 2 3 tcp 592 ------- 1 0.0 3.0 139 312
r 3.35016 2 3 tcp 592 ------- 1 0.0 3.0 136 298
- 3.359104 2 3 tcp 592 ---A--- 1 0.0 3.0 123 302
+ 3.367552 2 3 tcp 592 ------- 1 0.0 3.0 140 314
r 3.369104 2 3 tcp 592 ------- 1 0.0 3.0 137 300
- 3.378048 2 3 tcp 592 ------- 1 0.0 3.0 138 310
+ 3.386496 2 3 tcp 592 ------- 1 0.0 3.0 141 316
r 3.388048 2 3 tcp 592 ---A--- 1 0.0 3.0 123 302
- 3.396992 2 3 tcp 592 ------- 1 0.0 3.0 139 312
+ 3.40544 2 3 tcp 592 ------- 1 0.0 3.0 142 318
r 3.406992 2 3 tcp 592 ------- 1 0.0 3.0 138 310
- 3.415936 2 3 tcp 592 ------- 1 0.0 3.0 140 314
+ 3.424384 2 3 tcp 592 ------- 1 0.0 3.0 143 320
r 3.425936 2 3 tcp 592 ------- 1 0.0 3.0 139 312
+ 3.42912 2 3 tcp 592 ------- 1 0.0 3.0 144 321
- 3.43488 2 3 tcp 592 ------- 1 0.0 3.0 141 316
+ 3.443328 2 3 tcp 592 ------- 1 0.0 3.0 145 323
r 3.44488 2 3 tcp 592 ------- 1 0.0 3.0 140 314
- 3.453824 2 3 tcp 592 ------- 1 0.0 3.0 142 318
+ 3.462272 2 3 tcp 592 ------- 1 0.0 3.0 146 325
r 3.463824 2 3 tcp 592 ------- 1 0.0 3.0 141 316
- 3.472768 2 3 tcp 592 ------- 1 0.0 3.0 143 320
+ 3.481216 2 3 tcp 592 ------- 1 0.0 3.0 147 327
r 3.482768 2 3 tcp 592 ------- 1 0.0 3.0 142 318
- 3.491712 2 3 tcp 592 ------- 1 0.0 3.0 144 321
+ 3.50016 2 3 tcp 592 ------- 1 0.0 3.0 148 329
r 3.501712 2 3 tcp 592 ------- 1 0.0 3.0 143 320
- 3.510656 2 3 tcp 592 ------- 1 0.0 3.0 145 323
+ 3.519104 2 3 tcp 592 ------- 1 0.0 3.0 149 331
r 3.520656 2 3 tcp 592 ------- 1 0.0 3.0 144 321
- 3.5296 2 3 tcp 592 ------- 1 0.0 3.0 146 325
+ 3.538048 2 3 tcp 592 ------- 1 0.0 3.0 150 333
r 3.5396 2 3 tcp 592 ------- 1 0.0 3.0 145 323
- 3.548544 2 3 tcp 592 ------- 1 0.0 3.0 147 327
+ 3.556992 2 3 tcp 592 ------- 1 0.0 3.0 151 335
r 3.558544 2 3 tcp 592 ------- 1 0.0 3.0 146 325
+ 3.561728 2 3 tcp 592 ------- 1 0.0 3.0 152 336
- 3.567488 2 3 tcp 592 ------- 1 0.0 3.0 148 329
+ 3.575936 2 3 tcp 592 ------- 1 0.0 3.0 153 338
r 3.577488 2 3 tcp 592 ------- 1 0.0 3.0 147 327
- 3.586432 2 3 tcp 592 ------- 1 0.0 3.0 149 331
+ 3.59488 2 3 tcp 592 ------- 1 0.0 3.0 154 340
r 3.596432 2 3 tcp 592 ------- 1 0.0 3.0 148 329
- 3.605376 2 3 tcp 592 ------- 1 0.0 3.0 150 333
+ 3.613824 2 3 tcp 592 ------- 1 0.0 3.0 155 342
r 3.615376 2 3 tcp 592 ------- 1 0.0 3.0 149 331
- 3.62432 2 3 tcp 592 ------- 1 0.0 3.0 151 335
+ 3.632768 2 3 tcp 592 ------- 1 0.0 3.0 156 344
r 3.63432 2 3 tcp 592 ------- 1 0.0 3.0 150 333
- 3.643264 2 3 tcp 592 ------- 1 0.0 3.0 152 336
+ 3.651712 2 3 tcp 592 ------- 1 0.0 3.0 157 346
r 3.653264 2 3 tcp 592 ------- 1 0.0 3.0 151 335
- 3.662208 2 3 tcp 592 ------- 1 0.0 3.0 153 338
+ 3.670656 2 3 tcp 592 ------- 1 0.0 3.0 158 348
r 3.672208 2 3 tcp 592 ------- 1 0.0 3.0 152 336
- 3.681152 2 3 tcp 592 ------- 1 0.0 3.0 154 340
+ 3.6896 2 3 tcp 592 ------- 1 0.0 3.0 159 350
r 3.691152 2 3 tcp 592 ------- 1 0.0 3.0 153 338
- 3.700096 2 3 tcp 592 ------- 1 0.0 3.0 155 342
+ 3.708544 2 3 tcp 592 ------- 1 0.0 3.0 160 352
r 3.710096 2 3 tcp 592 ------- 1 0.0 3.0 154 340
- 3.71904 2 3 tcp 592 ------- 1 0.0 3.0 156 344
+ 3.727488 2 3 tcp 592 ------- 1 0.0 3.0 161 354
r 3.72904 2 3 tcp 592 ------- 1 0.0 3.0 155 342
+ 3.732224 2 3 tcp 592 ------- 1 0.0 3.0 162 355
- 3.737984 2 3 tcp 592 ------- 1 0.0 3.0 157 346
+ 3.746432 2 3 tcp 592 ------- 1 0.0 3.0 163 357
r 3.747984 2 3 tcp 592 ------- 1 0.0 3.0 156 344
- 3.756928 2 3 tcp 592 ------- 1 0.0 3.0 158 348
+ 3.765376 2 3 tcp 592 ------- 1 0.0 3.0 164 359
r 3.766928 2 3 tcp 592 ------- 1 0.0 3.0 157 346
- 3.775872 2 3 tcp 592 ------- 1 0.0 3.0 159 350
+ 3.78432 2 3 tcp 592 ------- 1 0.0 3.0 165 361
r 3.785872 2 3 tcp 592 ------- 1 0.0 3.0 158 348
- 3.794816 2 3 tcp 592 ------- 1 0.0 3.0 160 352
+ 3.803264 2 3 tcp 592 ------- 1 0.0 3.0 166 363
r 3.804816 2 3 tcp 592 ------- 1 0.0 3.0 159 350
- 3.81376 2 3 tcp 592 ------- 1 0.0 3.0 161 354
+ 3.822208 2 3 tcp 592 ------- 1 0.0 3.0 167 365
r 3.82376 2 3 tcp 592 ------- 1 0.0 3.0 160 352
- 3.832704 2 3 tcp 592 ------- 1 0.0 3.0 162 355
+ 3.841152 2 3 tcp 592 ------- 1 0.0 3.0 168 367
r 3.842704 2 3 tcp 592 ------- 1 0.0 3.0 161 354
- 3.851648 2 3 tcp 592 ------- 1 0.0 3.0 163 357
+ 3.860096 2 3 tcp 592 ------- 1 0.0 3.0 169 369
r 3.861648 2 3 tcp 592 ------- 1 0.0 3.0 162 355
- 3.870592 2 3 tcp 592 ------- 1 0.0 3.0 164 359
+ 3.87904 2 3 tcp 592 ------- 1 0.0 3.0 170 371
r 3.880592 2 3 tcp 592 ------- 1 0.0 3.0 163 357
- 3.889536 2 3 tcp 592 ------- 1 0.0 3.0 165 361
+ 3.897984 2 3 tcp 592 ------- 1 0.0 3.0 171 373
r 3.899536 2 3 tcp 592 ------- 1 0.0 3.0 164 359
+ 3.90272 2 3 tcp 592 ------- 1 0.0 3.0 172 374
- 3.90848 2 3 tcp 592 ------- 1 0.0 3.0 166 363
+ 3.916928 2 3 tcp 592 ------- 1 0.0 3.0 173 376
r 3.91848 2 3 tcp 592 ------- 1 0.0 3.0 165 361
- 3.927424 2 3 tcp 592 ------- 1 0.0 3.0 167 365
+ 3.935872 2 3 tcp 592 ------- 1 0.0 3.0 174 378
r 3.937424 2 3 tcp 592 ------- 1 0.0 3.0 166 363
- 3.946368 2 3 tcp 592 ------- 1 0.0 3.0 168 367
+ 3.954816 2 3 tcp 592 ------- 1 0.0 3.0 175 380
r 3.956368 2 3 tcp 592 ------- 1 0.0 3.0 167 365
- 3.965312 2 3 tcp 592 ------- 1 0.0 3.0 169 369
+ 3.97376 2 3 tcp 592 ------- 1 0.0 3.0 176 382
r 3.975312 2 3 tcp 592 ------- 1 0.0 3.0 168 367
- 3.984256 2 3 tcp 592 ------- 1 0.0 3.0 170 371
+ 3.992704 2 3 tcp 592 ------- 1 0.0 3.0 177 384
r 3.994256 2 3 tcp 592 ------- 1 0.0 3.0 169 369
- 4.0032 2 3 tcp 592 ------- 1 0.0 3.0 171 373
+ 4.011648 2 3 tcp 592 ------- 1 0.0 3.0 178 386
r 4.0132 2 3 tcp 592 ------- 1 0.0 3.0 170 371
- 4.022144 2 3 tcp 592 ------- 1 0.0 3.0 172 374
+ 4.030592 2 3 tcp 592 ------- 1 0.0 3.0 179 388
r 4.032144 2 3 tcp 592 ------- 1 0.0 3.0 171 373
- 4.041088 2 3 tcp 592 ------- 1 0.0 3.0 173 376
+ 4.049536 2 3 tcp 592 ------- 1 0.0 3.0 180 390
r 4.051088 2 3 tcp 592 ------- 1 0.0 3.0 172 374
- 4.060032 2 3 tcp 592 ------- 1 0.0 3.0 174 378
+ 4.06848 2 3 tcp 592 ------- 1 0.0 3.0 181 392
r 4.070032 2 3 tcp 592 ------- 1 0.0 3.0 173 376
- 4.078976 2 3 tcp 592 ------- 1 0.0 3.0 175 380
+ 4.087424 2 3 tcp 592 ------- 1 0.0 3.0 182 394
r 4.088976 2 3 tcp 592 ------- 1 0.0 3.0 174 378
+ 4.09216 2 3 tcp 592 ------- 1 0.0 3.0 183 395
- 4.09792 2 3 tcp 592 ------- 1 0.0 3.0 176 382
+ 4.106368 2 3 tcp 592 ------- 1 0.0 3.0 184 397
r 4.10792 2 3 tcp 592 ------- 1 0.0 3.0 175 380
- 4.116864 2 3 tcp 592 ------- 1 0.0 3.0 177 384
+ 4.125312 2 3 tcp 592 ------- 1 0.0 3.0 185 399
r 4.126864 2 3 tcp 592 ------- 1 0.0 3.0 176 382
- 4.135808 2 3 tcp 592 ------- 1 0.0 3.0 178 386
+ 4.144256 2 3 tcp 592 ------- 1 0.0 3.0 186 401
r 4.145808 2 3 tcp 592 ------- 1 0.0 3.0 177 384
- 4.154752 2 3 tcp 592 ------- 1 0.0 3.0 179 388
+ 4.1632 2 3 tcp 592 ------- 1 0.0 3.0 187 403
r 4.164752 2 3 tcp 592 ------- 1 0.0 3.0 178 386
- 4.173696 2 3 tcp 592 ------- 1 0.0 3.0 180 390
+ 4.182144 2 3 tcp 592 ------- 1 0.0 3.0 188 405
r 4.183696 2 3 tcp 592 ------- 1 0.0 3.0 179 388
- 4.19264 2 3 tcp 592 ------- 1 0.0 3.0 181 392
+ 4.201088 2 3 tcp 592 ------- 1 0.0 3.0 189 407
r 4.20264 2 3 tcp 592 ------- 1 0.0 3.0 180 390
- 4.211584 2 3 tcp 592 ------- 1 0.0 3.0 182 394
+ 4.220032 2 3 tcp 592 ------- 1 0.0 3.0 190 409
r 4.221584 2 3 tcp 592 ------- 1 0.0 3.0 181 392
- 4.230528 2 3 tcp 592 ------- 1 0.0 3.0 183 395
+ 4.238976 2 3 tcp 592 ------- 1 0.0 3.0 191 411
r 4.240528 2 3 tcp 592 ------- 1 0.0 3.0 182 394
- 4.249472 2 3 tcp 592 ------- 1 0.0 3.0 184 397
+ 4.25792 2 3 tcp 592 ------- 1 0.0 3.0 192 413
r 4.259472 2 3 tcp 592 ------- 1 0.0 3.0 183 395
- 4.268416 2 3 tcp 592 ------- 1 0.0 3.0 185 399